63
Lattice="9.99434883 -0.063855747 -3.51014988 -5.092857943 8.844689247 -3.622734697 0.001960405 -0.133289314 10.535664707" Properties=species:S:1:pos:R:3:forces:R:3 energy=-553.65423191 stress="4.886477494654003e-05 7.97040715375292e-06 1.7557365171109603e-05 7.97040715375292e-06 -4.807834479667874e-05 2.5028451594791864e-05 1.7557365171109603e-05 2.5028451594791864e-05 0.0001278760389710962" free_energy=-553.65638138 pbc="T T T"
Zr       7.38205000       4.34422000      -2.69293000      -0.00465000      -0.00126000       0.00080600
Zr       1.20671000       2.01872000       8.75141000      -0.00310600      -0.00311800       0.00280600
Zr       3.66735000       2.08823000       5.23239000      -0.00857200      -0.00072100       0.01361400
Zr       7.50547000      -0.09209000       2.61659000       0.00365700       0.00160100       0.00589100
Zr       6.25386000       1.77993000       6.86577000      -0.00834100       0.01121100      -0.00677900
Zr       5.01053000       4.28475000       0.75388000      -0.00282600      -0.00099800       0.01127700
Ti       9.93163000      -0.18501000       7.02599000       0.00466300      -0.00203500      -0.00161800
Ti      -2.66447000       8.73093000      -1.84809000      -0.00042600      -0.01141300       0.00710400
Ti      -0.22762000       8.71438000      -0.09601000       0.00259900       0.00090600      -0.00697700
Ti       3.88240000       2.20097000      -2.34195000      -0.00407800       0.00510900       0.00600000
Ti       1.47067000       6.61166000      -4.46831000       0.00210900       0.00167400      -0.01144100
Ti       1.21058000       6.58486000       3.38506000      -0.00593400      -0.01205400      -0.00223200
V        4.72367000       8.59317000      -4.45456000      -0.00088200      -0.00237000      -0.00067500
V        0.06499000      -0.06036000       5.19955000       0.00636200       0.00115300       0.00100500
V        4.85559000       8.52409000       0.70440000       0.00006800      -0.00111100       0.00299200
V       -1.29573000       2.19210000       9.53822000       0.00044800      -0.00969400       0.00051400
V       -1.25082000       2.09058000       1.76994000      -0.00758600      -0.00975200      -0.00565600
V       -1.29059000       2.14428000       4.35001000      -0.01181300      -0.01011500      -0.00715000
V       -1.21058000       2.25293000       6.92658000       0.00346600      -0.00439800       0.00518100
V       -2.37154000       4.37988000       3.55164000      -0.00270600       0.00094500       0.00274200
V       -2.49518000       4.38860000       6.09118000      -0.00892400       0.00523400      -0.00090700
V        6.11719000       6.30953000       4.28042000       0.00164400      -0.00619000       0.00063800
V       -3.81810000       6.68751000      -0.15171000       0.00082500       0.00476200      -0.00208100
V       -3.83285000       6.59696000       2.55606000      -0.00214100       0.00763700      -0.00136900
V       -3.74891000       6.59919000       5.25267000      -0.00058800      -0.00898500       0.00721300
V       -2.47961000       8.55322000       6.04397000      -0.00014500       0.00350600      -0.00146600
V       -2.76881000       8.65835000       0.81944000      -0.00141300      -0.00452000       0.00267500
V       -2.63396000       8.63191000       3.43059000       0.00481700       0.00544900      -0.00200000
V        1.21551000       2.19580000       1.00432000      -0.00420100       0.00488300      -0.00498500
V        1.19430000       2.11925000       3.46576000      -0.00741300       0.00226100       0.00199800
V        1.05301000       2.13124000       5.95781000       0.00013300      -0.00047000      -0.00468900
V       -0.12112000       4.38022000       7.78468000       0.00159600       0.00060100      -0.00539400
V        0.01480000       4.41156000      -0.08100000      -0.00178600      -0.00823700       0.00719000
V        0.02478000       4.34658000       5.19737000       0.00311800       0.00462400       0.00830700
V       -1.28742000       6.63991000      -3.61967000      -0.00238400       0.00015400       0.00267800
V       -1.37530000       6.46669000      -1.06900000      -0.00259400       0.00903800       0.00014900
V       -1.29276000       6.58449000       1.71754000       0.00017600       0.00918400      -0.00536700
V       -1.32243000       6.47823000       4.37974000      -0.00142400      -0.00288500       0.00290500
V       -0.03029000       8.72499000      -5.29638000       0.00526100       0.00484700      -0.00592200
V       -0.03602000       8.72684000      -2.77062000       0.00861000      -0.00010600      -0.00033300
V       -0.27159000       8.45631000       2.60712000       0.00973500       0.00176100      -0.00654200
V        3.63795000       1.95458000       0.17846000       0.00057700      -0.00136300      -0.00246700
V        3.76224000       2.21315000       2.53791000      -0.00205200       0.00467800      -0.00182200
V        2.37542000       4.36149000      -3.51291000       0.00329500      -0.00500900       0.00310900
V        2.44381000       4.48118000      -0.91352000      -0.00139800      -0.00329200       0.00311600
V        2.38812000       4.34977000       1.74590000      -0.01166500      -0.00014900       0.00494600
V        2.53523000       4.43903000       4.34693000      -0.00006200      -0.00000600      -0.00527600
V        1.08778000       6.50828000      -1.83708000       0.00026700       0.00474800       0.00571800
V        1.20547000       6.50140000       0.74447000      -0.00378300      -0.00254800       0.00176100
V        2.51044000       8.54508000       1.75012000       0.00967500      -0.00241900       0.00937800
V        6.28796000       2.05035000      -0.73380000      -0.00026000      -0.00242800      -0.00007500
V        6.30429000       2.30209000       4.08141000       0.00054400       0.00237900       0.00185800
V        4.86723000       4.53878000       5.91487000       0.00789500       0.00487600      -0.00929000
V        4.75024000       4.61601000      -2.01651000      -0.00242900       0.00590800      -0.00769600
V        3.65503000       6.58294000      -2.79804000       0.00600100      -0.00726200      -0.00329500
V        3.67912000       6.51248000      -0.05362000      -0.00568300       0.00216100       0.00240900
V        3.77709000       6.35593000       2.66798000      -0.00028900      -0.00356200       0.00909000
Cr      -2.51900000       4.37273000       8.58747000      -0.00386900       0.00222200       0.00443400
Cr       2.43921000       8.78877000      -5.93303000       0.00019800       0.00395400      -0.00390300
Cr       7.51770000      -0.01787000      -0.03471000       0.00231600       0.00519200      -0.00442100
Cr       6.25250000       2.12071000       1.71692000       0.00500800      -0.00350300      -0.00184100
Cr       4.97491000       4.32480000       3.46704000       0.00981300       0.00470900      -0.00443200
W       -0.03746000       4.31779000       2.60265000       0.02054300       0.00460800      -0.01140400
