63
Lattice="10.009781377 -0.066939972 -3.484931793 -5.10885643 8.875570237 -3.612621458 0.008270151 -0.141708379 10.477884273" Properties=species:S:1:pos:R:3:forces:R:3 energy=-553.64138348 stress="1.1421961700366362e-06 -1.1777727720541709e-05 -1.4661304936699776e-05 -1.1777727720541709e-05 -7.552226042318743e-06 9.455886325713135e-06 -1.4661304936699776e-05 9.455886325713135e-06 1.4511508717678577e-05" free_energy=-553.64467435 pbc="T T T"
Zr       7.39473000       4.38156000      -2.69089000      -0.00027500       0.00065300       0.00051100
Zr       1.20946000       2.00751000       8.70106000       0.00057400       0.00065400       0.00275900
Zr       3.65695000       2.08533000       5.20100000       0.00066600       0.00085300      -0.00014200
Zr       7.52212000      -0.08346000       2.65284000       0.00076500       0.00076000       0.00253300
Zr       6.19982000       1.87380000       6.82221000      -0.00454400       0.00543500      -0.00160700
Zr       5.00978000       4.30705000       0.77473000       0.00280100      -0.00175600      -0.00035300
Ti       9.98296000      -0.20848000       7.00403000       0.00140400      -0.00198600      -0.00160000
Ti      -2.66598000       8.75358000      -1.85109000       0.00049500       0.00086600       0.00028100
Ti      -0.23404000       8.74184000      -0.11032000      -0.00144300      -0.00078200      -0.00014900
Ti       3.86543000       2.22451000      -2.30042000       0.00164200       0.00169300       0.00120000
Ti       1.54891000       6.63416000      -4.47864000       0.00199800       0.00045900      -0.00205400
Ti       1.18593000       6.56579000       3.36833000      -0.00272000      -0.00280200      -0.00037600
V        4.68283000       8.57807000      -4.45028000       0.00080900       0.00084400       0.00138600
V        0.05517000      -0.06982000       5.17809000      -0.00293700       0.00126300       0.00012500
V        4.87013000       8.53836000       0.71346000       0.00073100      -0.00196200       0.00143200
V       -1.31732000       2.13427000       9.48895000       0.00160400      -0.00061100       0.00008100
V        8.73209000       2.02363000      -1.76448000      -0.00098900       0.00109000       0.00004900
V        8.69982000       2.06051000       0.81906000      -0.00073000      -0.00126100       0.00244600
V       -1.20075000       2.25777000       6.88623000      -0.00066900       0.00178100      -0.00083400
V       -2.39109000       4.38588000       3.52146000      -0.00614200       0.00020300       0.00247300
V       -2.48620000       4.39572000       6.04993000       0.00007900      -0.00074200      -0.00119700
V        6.16995000       6.31670000       4.25083000       0.00188700       0.00399200      -0.00249800
V       -3.83331000       6.71657000      -0.15757000      -0.00003800      -0.00175900       0.00052500
V       -3.84716000       6.62235000       2.55302000      -0.00063500       0.00078500       0.00046200
V       -3.74536000       6.61328000       5.22976000      -0.00022500       0.00158700       0.00158600
V       -2.46117000       8.56995000       5.98410000       0.00092600      -0.00050500      -0.00018100
V       -2.77570000       8.66519000       0.80977000       0.00145600       0.00148300      -0.00106500
V       -2.62064000       8.65082000       3.39625000       0.00028600      -0.00091200       0.00089900
V        1.20221000       2.19125000       0.99750000      -0.00147100       0.00053700      -0.00109200
V        1.17465000       2.10123000       3.43290000      -0.00243500      -0.00086300       0.00105000
V        1.04817000       2.12186000       5.91131000      -0.00058200      -0.00069600      -0.00154700
V       -0.10924000       4.37697000       7.73609000       0.00092000      -0.00114100      -0.00063500
V        0.00824000       4.40763000      -0.09378000      -0.00122500      -0.00115200       0.00074200
V        0.02534000       4.34546000       5.15827000      -0.00173700      -0.00172400       0.00159000
V       -1.25986000       6.65916000      -3.61910000       0.00186400      -0.00014800       0.00043900
V       -1.36494000       6.49162000      -1.08235000       0.00109400       0.00157800       0.00104800
V       -1.28533000       6.60881000       1.70069000       0.00074900      -0.00087900       0.00048300
V       -1.32063000       6.48627000       4.34270000       0.00035100       0.00025600      -0.00143500
V       -0.01374000       8.75540000      -5.30330000       0.00098800       0.00137900       0.00017200
V       -0.01041000       8.75714000      -2.77697000       0.00251200       0.00075000      -0.00191500
V       -0.22203000       8.48902000       2.56990000       0.00196100       0.00121100      -0.00125000
V        3.65452000       1.96165000       0.19072000       0.00106000       0.00189100       0.00221000
V        3.76086000       2.20326000       2.51652000      -0.00015000      -0.00099100      -0.00046700
V        2.37443000       4.37692000      -3.48622000       0.00218600       0.00024300      -0.00102600
V        2.44601000       4.49690000      -0.89010000      -0.00155800      -0.00047200      -0.00098100
V        2.38193000       4.35072000       1.73734000      -0.00339100       0.00033600       0.00213300
V        2.51168000       4.40754000       4.30417000      -0.00091500      -0.00093000      -0.00038500
V        1.10562000       6.53794000      -1.82794000       0.00148900       0.00167500       0.00115600
V        1.20098000       6.51909000       0.74328000       0.00100700      -0.00113800      -0.00192400
V        2.51094000       8.57269000       1.81440000      -0.00069700      -0.00122100       0.00085300
V        6.29014000       2.07285000      -0.74163000      -0.00030200      -0.00020100      -0.00001400
V        6.30760000       2.32410000       4.06112000      -0.00121300       0.00133000       0.00091000
V        4.83056000       4.59993000       5.87185000      -0.00188000      -0.00233600       0.00080000
V        4.77052000       4.63936000      -1.98423000      -0.00129000       0.00017800      -0.00231800
V        3.65390000       6.61234000      -2.75178000      -0.00030600      -0.00055400      -0.00056700
V        3.67126000       6.54060000      -0.02218000      -0.00043000      -0.00003000       0.00172100
V        3.77353000       6.36440000       2.75596000       0.00095300      -0.00105400       0.00528000
Cr      -2.51426000       4.38986000       8.52090000       0.00048500      -0.00020700      -0.00112900
Cr       7.52936000      -0.03122000      -2.39303000       0.00046100      -0.00253400      -0.00352300
Cr       7.53094000      -0.02319000      -0.04088000      -0.00142300      -0.00194200      -0.00179900
Cr       6.26616000       2.11718000       1.69978000       0.00044200      -0.00039400      -0.00074000
Cr       4.97977000       4.33770000       3.45955000      -0.00124300      -0.00198100      -0.00213900
W       -0.05289000       4.31406000       2.57045000       0.00694800       0.00190000      -0.00239400
