63
Lattice="10.015379967 -0.03296795 -3.522199797 -5.055379412 8.82981238 -3.575432701 -0.015276856 -0.09180598 10.522985076" Properties=species:S:1:pos:R:3:forces:R:3 energy=-553.57997926 stress="0.0014954780695798804 0.00034552994520889717 -0.0006326019159447718 0.00034552994520889717 0.0018613054024661498 0.0005051815071398651 -0.0006326019159447718 0.0005051815071398651 0.0013114596560214642" free_energy=-553.5824906 pbc="T T T"
Zr       7.40896000       4.36717000      -2.65984000       0.01775800      -0.04207800      -0.03134800
Zr       1.21140000       2.06717000       8.74769000      -0.02701400       0.00806900       0.02698500
Zr       3.68535000       2.10539000       5.22964000      -0.03324000      -0.05121800      -0.02098800
Zr       7.49685000      -0.05766000       2.56810000       0.03263300       0.01829700       0.10011900
Zr       6.28789000       1.82574000       6.85192000      -0.00423900       0.01547800      -0.03690900
Zr       5.03716000       4.31609000       0.73474000       0.00452700      -0.06046600      -0.13223600
Ti       4.90997000       8.77816000      -7.07470000      -0.07138100       0.02595100      -0.02336300
Ti      -2.60809000       8.75124000      -1.78707000      -0.03532800       0.01242100      -0.04948300
Ti      -0.17278000       8.73235000      -0.03189000      -0.03010300      -0.01608300      -0.01093000
Ti       3.90745000       2.24194000      -2.35472000       0.05085800      -0.06330600       0.04351100
Ti       1.35511000       6.62839000      -4.37568000       0.18935500      -0.04387400      -0.11440800
Ti       1.26785000       6.59663000       3.41656000       0.01977300       0.04821300       0.03914900
V        9.89160000      -0.06716000      -0.79719000       0.00226200      -0.17406800      -0.02154500
V        0.04564000      -0.03239000       5.20365000       0.06831600       0.04972300      -0.01248900
V        4.88568000       8.60405000       0.73315000      -0.01062900      -0.10835700      -0.04648500
V       -1.27876000       2.21941000       9.54389000      -0.01447900       0.02089600       0.03208200
V       -1.21891000       2.09602000       1.77221000       0.04280800       0.09837000       0.06555500
V       -1.27867000       2.17957000       4.36794000      -0.00147800       0.05897300       0.05191400
V       -1.21164000       2.25122000       6.94541000      -0.00581900       0.06974500      -0.01554100
V       -2.36229000       4.40527000       3.57647000       0.05561800      -0.01255300       0.00539300
V       -2.50216000       4.40318000       6.09554000       0.05186600      -0.00990500       0.03326500
V        6.18015000       6.34245000       4.28958000      -0.08536700       0.11040100       0.00371100
V       -3.80868000       6.70615000      -0.11780000       0.00212600      -0.08391300      -0.02209700
V       -3.82257000       6.61324000       2.57501000      -0.00119100       0.05055300       0.00887800
V       -3.76266000       6.62107000       5.25515000       0.06491700       0.04669500       0.00519900
V       -2.47584000       8.59205000       6.08876000       0.08446400      -0.07601100      -0.01067300
V       -2.73547000       8.63389000       0.87679000       0.03102600       0.16736600       0.05215900
V       -2.59932000       8.67725000       3.47599000       0.01011900      -0.08018600      -0.01190300
V        1.21918000       2.22012000       0.99651000       0.00277900       0.02087900       0.09019500
V        1.22278000       2.16703000       3.49114000      -0.03617600      -0.00887600      -0.05074200
V        1.06675000       2.19132000       5.98832000      -0.05673200      -0.08307200      -0.07199600
V       -0.11381000       4.42196000       7.80702000      -0.11088900       0.03509500       0.02915600
V        0.03046000       4.41108000      -0.06241000       0.00819100       0.02258600       0.00108900
V        0.02097000       4.37854000       5.23078000      -0.01348200      -0.03462900      -0.04008700
V       -1.30695000       6.63834000      -3.54764000       0.08439200       0.02736100      -0.07378000
V       -1.36854000       6.47597000      -0.99637000       0.08825700      -0.01768800      -0.07248400
V       -1.27829000       6.60227000       1.75024000       0.01897100      -0.01326100       0.02030300
V       -1.31254000       6.50519000       4.40693000      -0.00223000       0.03841200       0.03681700
V        0.00413000       8.72479000      -5.27139000      -0.09212300      -0.00220700       0.08338200
V       -0.01580000       8.74864000      -2.72714000      -0.01891600      -0.01870900      -0.00913600
V       -0.21244000       8.46555000       2.66263000      -0.08034500       0.05122400      -0.00996800
V        3.65003000       1.98160000       0.17020000      -0.00435200      -0.04043000       0.02825300
V        3.80422000       2.25959000       2.53083000      -0.03606000      -0.05315400      -0.04245900
V        2.40323000       4.38280000      -3.51166000       0.03996500       0.02197500      -0.09504300
V        2.46575000       4.49922000      -0.94513000      -0.01344300       0.02752700       0.13174400
V        2.40854000       4.39528000       1.75319000      -0.03051400      -0.05370000      -0.05699700
V        2.54436000       4.41964000       4.33707000       0.01822700       0.21595300       0.11301600
V        1.10693000       6.50884000      -1.78216000      -0.05335400       0.01768700      -0.03236500
V        1.23201000       6.52134000       0.77951000       0.06491300      -0.01354700      -0.09429000
V        2.55464000       8.57604000       1.76856000      -0.00377200       0.02007800      -0.03368100
V        6.33705000       2.02993000      -0.74064000      -0.10916200       0.19620300       0.04034000
V        6.31774000       2.35550000       4.08091000       0.07166000      -0.06020700      -0.02760800
V        4.96804000       4.51220000       5.87072000      -0.15425700       0.07880400       0.05099200
V        4.77020000       4.66501000      -2.06395000      -0.01537500      -0.01717000       0.04094000
V        3.67803000       6.61963000      -2.82486000       0.01414600      -0.01068800      -0.02689500
V        3.70610000       6.55673000      -0.06454000       0.03441800      -0.02671900      -0.02192300
V        3.80768000       6.40797000       2.55459000       0.03991300      -0.07784500       0.19662500
Cr      -2.52668000       4.38969000       8.62643000       0.04303300       0.03650000      -0.08024300
Cr       7.55083000      -0.03577000      -2.28644000      -0.00153100      -0.16828400      -0.08465700
Cr       7.53866000       0.02466000      -0.06813000      -0.03863900      -0.06124400       0.10968100
Cr       6.28097000       2.16082000       1.70520000      -0.01839400      -0.00195800       0.03430800
Cr       5.00712000       4.35297000       3.44875000      -0.06173900       0.03164900       0.02588900
W       -0.02325000       4.35175000       2.62309000       0.01446200      -0.05767900      -0.01589800
