63
Lattice="10.003164953 -0.06628896 -3.486976414 -5.104460024 8.872671648 -3.613411837 0.009140453 -0.138580478 10.486499986" Properties=species:S:1:pos:R:3:forces:R:3 energy=-553.64398297 stress="-0.00026957702065602383 7.48981095105991e-06 4.375297897244164e-06 7.48981095105991e-06 -0.0002622370059239851 5.642324249798465e-06 4.375297897244164e-06 5.642324249798465e-06 -0.0002350177846260082" free_energy=-553.64680803 pbc="T T T"
Zr       7.38843000       4.37183000      -2.68191000       0.00134700      -0.00048500      -0.00197500
Zr       1.21093000       2.01331000       8.70834000       0.00326400      -0.00034000       0.00284900
Zr       3.66115000       2.08597000       5.20699000       0.00311300      -0.00164500       0.00548400
Zr       7.51876000      -0.08845000       2.63710000      -0.00835000       0.00478200       0.00481900
Zr       6.21922000       1.84679000       6.83187000      -0.00218700       0.00649400      -0.00615300
Zr       5.01082000       4.30170000       0.76018000      -0.00870800      -0.00296900       0.00933200
Ti       9.97015000      -0.20105000       7.00849000      -0.00003300      -0.00475200       0.00086500
Ti      -2.66654000       8.75495000      -1.84486000      -0.00049400      -0.00188200      -0.00090200
Ti      -0.23074000       8.73922000      -0.10362000       0.00235900       0.00010400      -0.00328100
Ti       3.87166000       2.21964000      -2.30979000      -0.00388100       0.00232000       0.00188000
Ti       1.50521000       6.63393000      -4.46463000       0.00758600       0.00473400      -0.01034500
Ti       1.19681000       6.57547000       3.37112000       0.00054800      -0.00571500       0.00385300
V        4.69901000       8.60153000      -4.44213000      -0.00467100      -0.00611800      -0.00289000
V        0.05948000      -0.06529000       5.17807000       0.00736100      -0.00056100      -0.00240100
V        4.86363000       8.53970000       0.71082000       0.00055700      -0.00214700       0.00205300
V       -1.30477000       2.14894000       9.49918000      -0.00443600      -0.00147400      -0.00164600
V        8.73605000       2.02693000      -1.75210000      -0.00474700      -0.00433200      -0.00183400
V        8.70095000       2.07055000       0.82901000      -0.00277600      -0.00667900       0.00156900
V       -1.20362000       2.25647000       6.89449000       0.00259100       0.00230700      -0.00067700
V       -2.38128000       4.38986000       3.53180000       0.00057300       0.00063100      -0.00250200
V       -2.49173000       4.39741000       6.05928000       0.00322100       0.00039900       0.00022300
V        6.14652000       6.32322000       4.25896000       0.00638400       0.00387800       0.00031800
V       -3.82656000       6.71156000      -0.15604000       0.00088500       0.00510600       0.00075300
V       -3.84192000       6.62226000       2.54925000      -0.00046800       0.00185100      -0.00035000
V       -3.74798000       6.61310000       5.22984000       0.00342900       0.00231000       0.00392400
V       -2.46631000       8.57150000       5.99998000      -0.00151400       0.00063000      -0.00399100
V       -2.77176000       8.66986000       0.81632000      -0.00697700      -0.00130800      -0.00130300
V       -2.62080000       8.65242000       3.40585000       0.00184300       0.00109400      -0.00300700
V        1.20613000       2.19624000       1.00075000      -0.00084700      -0.00500100      -0.00645600
V        1.18324000       2.11344000       3.44282000       0.00070600      -0.00839600       0.00447000
V        1.05080000       2.13017000       5.92112000      -0.00418800       0.00153900       0.00028300
V       -0.11579000       4.38159000       7.74821000       0.00210600       0.00007800      -0.00633600
V        0.01006000       4.41052000      -0.08877000       0.00055300       0.00090600       0.00168600
V        0.02518000       4.35125000       5.16908000      -0.00065300      -0.00226000       0.00576100
V       -1.27549000       6.65901000      -3.61191000       0.00283000      -0.00175500      -0.00140700
V       -1.37187000       6.48961000      -1.07436000       0.00225300       0.00097500       0.00105900
V       -1.28607000       6.60665000       1.70667000       0.00109900       0.00018600      -0.00170300
V       -1.31889000       6.48996000       4.35379000      -0.00119100      -0.00176700      -0.00326700
V       -0.02124000       8.75293000      -5.29606000       0.00282700      -0.00086400       0.00032800
V       -0.02168000       8.75297000      -2.77117000       0.00406000       0.00228300       0.00121300
V       -0.23197000       8.48307000       2.58059000      -0.00216600       0.00231500      -0.00440300
V        3.64841000       1.95982000       0.18925000       0.00032100       0.00244300       0.00246900
V        3.76490000       2.20983000       2.52245000      -0.00178000      -0.00092200      -0.00499100
V        2.37156000       4.37605000      -3.49387000       0.00138800      -0.00436100       0.00415100
V        2.44081000       4.49607000      -0.89895000      -0.00028300      -0.00319200       0.00091200
V        2.38513000       4.35553000       1.73900000       0.00311000       0.00150900       0.00044000
V        2.52424000       4.42603000       4.31880000      -0.00395500       0.00133900      -0.00399600
V        1.09536000       6.53378000      -1.82755000       0.00360300       0.00071700       0.00457300
V        1.20593000       6.51871000       0.74295000      -0.00518400      -0.00005800       0.00079800
V        2.51470000       8.56911000       1.79463000       0.00219400       0.00121000       0.00185600
V        6.29038000       2.06512000      -0.73594000      -0.00128200       0.00058900       0.00237200
V        6.30732000       2.31637000       4.06721000      -0.00112100       0.00205200       0.00067900
V        4.86096000       4.56486000       5.87543000      -0.00592000       0.00881500       0.00560200
V        4.75722000       4.63940000      -2.00328000       0.00184300      -0.00124700       0.00267500
V        3.65227000       6.60663000      -2.77650000       0.00115500       0.00043500       0.00380700
V        3.67346000       6.53632000      -0.03735000       0.00318100      -0.00239500       0.00694100
V        3.77705000       6.36760000       2.71324000      -0.00192600       0.00175600       0.01136200
Cr      -2.51646000       4.38692000       8.53644000       0.00156400      -0.00073800       0.00053200
Cr       7.52900000      -0.03949000      -2.36316000       0.00173500      -0.00026000      -0.00380100
Cr       7.52618000      -0.02061000      -0.03970000       0.00128700      -0.00293100      -0.00353400
Cr       6.26200000       2.11936000       1.70603000       0.00382100      -0.00320300      -0.00000600
Cr       4.98015000       4.33469000       3.45701000      -0.00008100      -0.00027600      -0.00843700
W       -0.04522000       4.31979000       2.57999000      -0.00687800       0.01424600      -0.01030100
