63
Lattice="10.061596856 -0.025357549 -3.530143612 -5.072766874 8.824944533 -3.58564918 -0.010732598 -0.086333113 10.559996097" Properties=species:S:1:pos:R:3:forces:R:3 energy=-553.19065984 stress="0.008905822126449045 0.00030452323025184413 0.00036795568749819574 0.00030452323025184413 0.007315966197376684 -8.464110525610287e-05 0.00036795568749819574 -8.464110525610287e-05 0.008584996074360394" free_energy=-553.19103255 pbc="T T T"
Zr       7.46017000       4.37751000      -2.65098000      -0.04055700       0.02769300      -0.04942000
Zr       1.22063000       2.08255000       8.78027000       0.01070100      -0.03609500      -0.00955800
Zr       3.70313000       2.09172000       5.25108000       0.02372100       0.14344700      -0.00779100
Zr       7.52819000      -0.03273000       2.57747000       0.01840200      -0.07614200      -0.03661700
Zr       6.32391000       1.83851000       6.87851000       0.00593700      -0.04263900       0.02867300
Zr       5.07192000       4.31006000       0.74552000      -0.03115100       0.08691400       0.07133500
Ti       4.94886000       8.78525000      -7.08595000      -0.02070300      -0.01068900      -0.03292100
Ti      -2.58297000       8.76831000      -1.78370000      -0.11276100      -0.09249400      -0.00586500
Ti      -0.16895000       8.72987000      -0.02799000       0.01676300       0.00833900       0.00006100
Ti       3.92698000       2.24142000      -2.35513000      -0.01666500       0.03444100      -0.01494200
Ti       1.21642000       6.63704000      -4.33511000       0.56032500      -0.00726900      -0.17040000
Ti       1.29264000       6.59190000       3.46442000      -0.09409500       0.01528000      -0.18169300
V       10.00640000       0.02531000      -0.76705000      -0.31138300      -0.27720600      -0.09424600
V        0.06196000      -0.02046000       5.24787000      -0.06129700      -0.05421700      -0.12056000
V        4.92139000       8.61351000       0.72664000      -0.01483300       0.00563100       0.07230300
V       -1.28225000       2.24013000       9.57849000       0.01766300      -0.06070400      -0.01815100
V       -1.20030000       2.10991000       1.77949000      -0.10996300      -0.12871900      -0.00600100
V       -1.28886000       2.19257000       4.39136000       0.02404100      -0.08644800      -0.05314300
V       -1.21231000       2.26203000       6.97142000       0.01732400      -0.03387600       0.00094700
V       -2.36221000       4.39536000       3.59049000       0.00054200       0.05367100       0.00577700
V       -2.50272000       4.38760000       6.10800000      -0.05348900       0.07890100       0.04365900
V        6.30001000       6.38241000       4.27252000      -0.29742400      -0.19119600       0.14912400
V        6.19176000       6.66507000      -3.66519000       0.22573200       0.10304600       0.09627300
V       -3.81586000       6.61472000       2.58814000      -0.06566000      -0.01619200      -0.02079100
V       -3.74736000       6.62281000       5.24953000      -0.12045700      -0.02968500       0.11399200
V       -2.46791000       8.58634000       6.10913000      -0.05262700       0.05414500       0.01920900
V       -2.73409000       8.63868000       0.91200000      -0.06462400      -0.10909000      -0.13223800
V       -2.61039000       8.67611000       3.49300000       0.02467500       0.01560500      -0.00605300
V        1.22620000       2.23888000       1.00689000       0.00101600      -0.06424200      -0.03649000
V        1.22920000       2.17540000       3.50943000       0.01148400      -0.00703600       0.00437900
V        1.06791000       2.18981000       6.01822000       0.03256200       0.05697500      -0.02323600
V       -0.10901000       4.41951000       7.83571000       0.03864500       0.01764100      -0.00706600
V        0.03623000       4.41024000      -0.06231000       0.00469900       0.00741700       0.01471400
V       -0.00139000       4.35823000       5.24838000       0.12419500       0.10695700       0.01279900
V       -1.32902000       6.63327000      -3.55138000       0.04510400       0.00101700       0.00237700
V       -1.35379000       6.46257000      -0.98714000      -0.10318500       0.03832300      -0.02753700
V       -1.27508000       6.60751000       1.75746000       0.00148200       0.00328400       0.01524700
V       -1.31367000       6.51533000       4.42440000       0.01314800      -0.04713500      -0.01998300
V       -0.01769000       8.73436000      -5.27862000       0.17168100      -0.04561100      -0.05213400
V       -0.00849000       8.75990000      -2.73878000       0.02099800      -0.03820100       0.01733700
V       -0.22988000       8.47091000       2.67346000       0.11469600      -0.06778800       0.02255100
V        3.67134000       1.98193000       0.17630000      -0.01364100       0.00929200      -0.01194400
V        3.83572000       2.25884000       2.53001000      -0.01977100       0.06203500       0.05512000
V        2.46561000       4.35750000       6.96933000      -0.26349800      -0.26536800       0.34097800
V        2.47955000       4.49356000      -0.92814000       0.01089700       0.04365400      -0.11788700
V        2.40827000       4.37828000       1.73816000       0.06864400       0.10770900       0.13416300
V        2.50511000       4.35961000       4.31313000       0.23144100       0.18263800       0.12796500
V        1.10130000       6.49681000      -1.75159000       0.07952400       0.04467000      -0.12416200
V        1.22992000       6.52529000       0.76504000       0.03861000      -0.01264200       0.11677600
V        2.55166000       8.60250000       1.75133000       0.11788700      -0.11825500       0.14995000
V        6.36697000       2.04734000      -0.71455000       0.06889400      -0.15504600      -0.09228400
V        6.36515000       2.35346000       4.08553000      -0.08132800       0.09670600       0.03394900
V        5.06071000       4.41861000       5.94830000      -0.19599900       0.39408700      -0.23783500
V        4.80769000       4.65501000      -2.03026000      -0.07541700       0.09938300      -0.18574500
V        3.68416000       6.65084000      -2.71921000       0.06789700      -0.11606500      -0.42708900
V        3.72969000       6.56331000      -0.05546000      -0.00844000      -0.00531400      -0.00157600
V        3.83064000       6.43029000       2.50327000       0.00705400      -0.05836000       0.18711600
Cr      -2.52112000       4.38336000       8.66376000      -0.05548600       0.04067600      -0.01801400
Cr       2.51170000       8.77143000      -5.98165000      -0.00257300       0.19348100       0.52592800
Cr       7.60398000      -0.02071000      -0.10754000      -0.11188900       0.26790000       0.07806600
Cr       6.31384000       2.16746000       1.70845000       0.00516500       0.00608500       0.01683900
Cr       5.00716000       4.39903000       3.49902000       0.15794100      -0.17533200      -0.14431800
W       -0.02403000       4.35756000       2.63067000       0.01942300       0.02201700       0.03008000
63
Lattice="10.036408421 -0.026263892 -3.522555176 -5.060269906 8.806881419 -3.576122567 -0.011806251 -0.085897033 10.534134225" Properties=species:S:1:pos:R:3:forces:R:3 energy=-553.27255222 stress="0.0019847936605217505 0.0002356918676116036 0.0002516451649373612 0.0002356918676116036 0.000628151719938017 3.608216425673112e-05 0.0002516451649373612 3.608216425673112e-05 0.0016667887705579985" free_energy=-553.27295868 pbc="T T T"
Zr       7.44034000       4.36819000      -2.64612000      -0.05236800       0.00123200      -0.04432900
Zr       1.21663000       2.07762000       8.75850000       0.01515600      -0.03679600      -0.00646400
Zr       3.69345000       2.08992000       5.23773000       0.02174900       0.10293900      -0.00009600
Zr       7.50915000      -0.03472000       2.56967000       0.01494100      -0.06829200      -0.01153200
Zr       6.30707000       1.83347000       6.86159000      -0.00242100      -0.02038800       0.01494500
Zr       5.05798000       4.30232000       0.74464000      -0.02452400       0.06578600       0.02447500
Ti       4.93587000       8.76611000      -7.06954000      -0.02736200      -0.01798700      -0.02397700
Ti      -2.57916000       8.74842000      -1.77896000      -0.11127200      -0.08026700      -0.01086500
Ti      -0.16896000       8.71183000      -0.02769000       0.01886100       0.01586900       0.00126600
Ti       3.91674000       2.23701000      -2.35001000      -0.01042000       0.02601500      -0.02413100
Ti       1.22399000       6.62284000      -4.32774000       0.55201200      -0.02004900      -0.18155900
Ti       1.28661000       6.57841000       3.45247000      -0.05902000       0.02607400      -0.14302800
V        9.97507000       0.01903000      -0.76804000      -0.27663600      -0.29340500      -0.10718100
V        0.06008000      -0.02134000       5.23269000      -0.06483800      -0.04574200      -0.10218500
V        4.90777000       8.59523000       0.72595000      -0.01113200       0.00938900       0.07019000
V       -1.27985000       2.23463000       9.55487000       0.01723100      -0.06655700      -0.00844800
V       -1.19974000       2.10317000       1.77519000      -0.10060200      -0.08849900      -0.01170300
V       -1.28577000       2.18655000       4.37977000       0.02630300      -0.06649600      -0.04199900
V       -1.20983000       2.25693000       6.95455000       0.00431200      -0.04070600       0.00141500
V       -2.35696000       4.38751000       3.58217000      -0.02837400       0.04549300      -0.00077900
V       -2.49841000       4.38033000       6.09425000      -0.03540700       0.07216200       0.03512900
V        6.27728000       6.36496000       4.26442000      -0.30718000      -0.14371700       0.14823300
V        6.18018000       6.65252000      -3.65485000       0.19930200       0.07349600       0.07942200
V       -3.80827000       6.60100000       2.58196000      -0.06445200      -0.01921500      -0.01385400
V       -3.74128000       6.60887000       5.23943000      -0.10986000      -0.02181500       0.10119500
V       -2.46404000       8.56983000       6.09501000      -0.05119600       0.04969300       0.01948500
V       -2.72923000       8.61881000       0.90771000      -0.03486400      -0.06031700      -0.12552100
V       -2.60440000       8.65861000       3.48481000       0.02803900       0.02288400      -0.00221200
V        1.22280000       2.23288000       1.00365000       0.00422700      -0.06887100      -0.03899300
V        1.22574000       2.17070000       3.50084000       0.01850500      -0.01836900      -0.00372400
V        1.06501000       2.18639000       6.00298000       0.04417800       0.04078300      -0.01562900
V       -0.10920000       4.41083000       7.81651000       0.03296800       0.01896900      -0.00403400
V        0.03586000       4.40117000      -0.06177000      -0.00533300       0.00344500       0.00886800
V        0.00007000       4.35132000       5.23588000       0.11723900       0.10221500       0.02035400
V       -1.32498000       6.61947000      -3.54234000       0.06212100       0.00508500      -0.00833100
V       -1.35279000       6.44992000      -0.98495000      -0.08188600       0.05176300      -0.02567500
V       -1.27257000       6.59394000       1.75375000      -0.00974400      -0.01092900       0.00445300
V       -1.31111000       6.50104000       4.41347000       0.01456600      -0.04011400      -0.00765500
V       -0.01455000       8.71513000      -5.26648000       0.13757200      -0.04035900      -0.04247900
V       -0.00854000       8.74081000      -2.73153000       0.01014000      -0.03995400       0.02858100
V       -0.22810000       8.45201000       2.66758000       0.11484400      -0.02847300       0.01520000
V        3.66156000       1.97766000       0.17530000      -0.00832500       0.01946300      -0.01815700
V        3.82513000       2.25504000       2.52453000      -0.03039500       0.03767200       0.05944500
V        2.45316000       4.34325000       6.95868000      -0.24088600      -0.24276200       0.29842800
V        2.47317000       4.48478000      -0.92829000       0.00797100       0.02854100      -0.09503500
V        2.40291000       4.37104000       1.73634000       0.07406100       0.09211700       0.10799700
V        2.50237000       4.35392000       4.30487000       0.22363400       0.21415100       0.14532500
V        1.09965000       6.48398000      -1.74965000       0.07449700       0.05094300      -0.12365300
V        1.22689000       6.51134000       0.76544000       0.04224200      -0.00325000       0.10300300
V        2.54652000       8.58210000       1.74986000       0.09594300      -0.09140800       0.12408500
V        6.35202000       2.03951000      -0.71520000       0.03723400      -0.09444300      -0.10177700
V        6.34678000       2.34996000       4.07557000      -0.06836600       0.05760700       0.05433800
V        5.04307000       4.41668000       5.92873000      -0.21403800       0.38402400      -0.21425200
V        4.79384000       4.64675000      -2.02926000      -0.04710100       0.06356100      -0.15476800
V        3.67582000       6.63434000      -2.72100000       0.06172500      -0.10569100      -0.42411200
V        3.71948000       6.54919000      -0.05558000      -0.00479700      -0.00603400      -0.00986000
V        3.82023000       6.41547000       2.50049000       0.00372400      -0.05142400       0.21864500
Cr      -2.51707000       4.37542000       8.64257000      -0.04695500       0.03284300      -0.01042100
Cr       2.50514000       8.75649000      -5.95693000       0.00499300       0.13557700       0.45086000
Cr       7.58252000      -0.01617000      -0.10657000      -0.10726700       0.22355600       0.12062200
Cr       6.29753000       2.16255000       1.70398000       0.00226600       0.00340400       0.01891400
Cr       4.99673000       4.38612000       3.48726000       0.13224100      -0.15588200      -0.13737100
W       -0.02425000       4.34896000       2.62492000       0.02222300       0.01146000       0.02091800
63
Lattice="9.997953659 -0.027647592 -3.510970039 -5.041190995 8.779304764 -3.561578446 -0.013445378 -0.085231276 10.494651338" Properties=species:S:1:pos:R:3:forces:R:3 energy=-553.29981686 stress="-0.009044077795096485 0.00012621579754361125 6.765795892457452e-05 0.00012621579754361125 -0.010020668003496061 0.00022061862307259553 6.765795892457452e-05 0.00022061862307259553 -0.009354686496746064" free_energy=-553.30034586 pbc="T T T"
Zr       7.41006000       4.35397000      -2.63869000      -0.07128600      -0.04045600      -0.03700700
Zr       1.21053000       2.07009000       8.72528000       0.02181600      -0.03856800      -0.00076200
Zr       3.67866000       2.08717000       5.21735000       0.01896300       0.03929500       0.01334000
Zr       7.48008000      -0.03775000       2.55775000       0.00978300      -0.05604100       0.02743500
Zr       6.28137000       1.82578000       6.83577000      -0.01668800       0.01561300      -0.00771700
Zr       5.03670000       4.29049000       0.74329000      -0.01423700       0.03234500      -0.05074400
Ti       4.91604000       8.73689000      -7.04448000      -0.03769400      -0.02954700      -0.00950500
Ti      -2.57331000       8.71805000      -1.77173000      -0.10868800      -0.06057300      -0.01925800
Ti      -0.16896000       8.68428000      -0.02724000       0.02226900       0.02722900       0.00322800
Ti       3.90110000       2.23027000      -2.34219000      -0.00011300       0.01234100      -0.03890500
Ti       1.23549000       6.60116000      -4.31648000       0.53746900      -0.04168900      -0.20032600
Ti       1.27741000       6.55781000       3.43423000      -0.00281800       0.04291500      -0.07964100
V        9.92727000       0.00947000      -0.76953000      -0.21976100      -0.31905700      -0.12852500
V        0.05720000      -0.02267000       5.20953000      -0.07034500      -0.03209800      -0.07244700
V        4.88699000       8.56733000       0.72488000      -0.00436600       0.01484800       0.06610900
V       -1.27619000       2.22624000       9.51882000       0.01591500      -0.07446000       0.00629500
V       -1.19887000       2.09291000       1.76864000      -0.08311200      -0.02150600      -0.01995300
V       -1.28106000       2.17736000       4.36209000       0.03105700      -0.03290700      -0.02323500
V       -1.20603000       2.24915000       6.92879000      -0.01658800      -0.05081600       0.00121400
V       -2.34894000       4.37552000       3.56945000      -0.07441400       0.03176100      -0.01101500
V       -2.49183000       4.36922000       6.07326000      -0.00532700       0.06131300       0.02181100
V        6.24261000       6.33835000       4.25204000      -0.31940500      -0.06549700       0.14514600
V       -3.83548000       6.66100000      -0.12811000       0.15677700       0.02561800       0.05209200
V       -3.79669000       6.58005000       2.57253000      -0.06327400      -0.02373600      -0.00192900
V       -3.73200000       6.58759000       5.22398000      -0.09258000      -0.00866100       0.08035500
V       -2.45813000       8.54461000       6.07344000      -0.04876800       0.04159200       0.02050000
V       -2.72181000       8.58849000       0.90119000       0.01308300       0.01863000      -0.11428800
V       -2.59527000       8.63190000       3.47231000       0.03295700       0.03394800       0.00317600
V        1.21762000       2.22374000       0.99870000       0.00882100      -0.07578100      -0.04207600
V        1.22046000       2.16353000       3.48773000       0.02949600      -0.03609500      -0.01636900
V        1.06056000       2.18116000       5.97971000       0.06252500       0.01437300      -0.00391500
V       -0.10949000       4.39757000       7.78718000       0.02140600       0.02092700       0.00168000
V        0.03528000       4.38733000      -0.06095000      -0.02113000      -0.00218300      -0.00034100
V        0.00229000       4.34076000       5.21679000       0.10640600       0.09420300       0.03170300
V       -1.31882000       6.59841000      -3.52854000       0.08771300       0.01169400      -0.02482700
V       -1.35126000       6.43060000      -0.98161000      -0.04619100       0.07279000      -0.02334300
V       -1.26874000       6.57322000       1.74807000      -0.02765500      -0.03307900      -0.01307700
V       -1.30720000       6.47924000       4.39680000       0.01641100      -0.02836700       0.01271500
V       -0.00977000       8.68577000      -5.24795000       0.07998500      -0.03187400      -0.02650000
V       -0.00862000       8.71168000      -2.72046000      -0.00846100      -0.04302400       0.04605500
V       -0.22541000       8.42316000       2.65859000       0.11453700       0.03430700       0.00284200
V        3.64663000       1.97114000       0.17378000       0.00058700       0.03554800      -0.02813500
V        3.80897000       2.24925000       2.51615000      -0.04829300      -0.00153200       0.06618200
V        2.43419000       4.32152000       6.94237000      -0.20236900      -0.20617100       0.22692900
V        2.46343000       4.47138000      -0.92851000       0.00350900       0.00487200      -0.05589400
V        2.39472000       4.36000000       1.73354000       0.08255600       0.06694700       0.06639700
V        2.49816000       4.34521000       4.29225000       0.20889300       0.26201600       0.17147300
V        1.09712000       6.46437000      -1.74667000       0.06622300       0.06222200      -0.12170300
V        1.22226000       6.49005000       0.76604000       0.04771300       0.01138400       0.07928100
V        2.53865000       8.55095000       1.74761000       0.06124500      -0.04865900       0.08477000
V        6.32918000       2.02757000      -0.71617000      -0.01552500       0.00549500      -0.11570100
V        6.31875000       2.34460000       4.06036000      -0.04679300      -0.00524800       0.08770600
V        5.01616000       4.41370000       5.89888000      -0.24112200       0.36410300      -0.17278000
V        4.77269000       4.63412000      -2.02770000      -0.00126900       0.00645200      -0.10561100
V        3.66308000       6.60916000      -2.72368000       0.05179200      -0.08904900      -0.41624500
V        3.70391000       6.52763000      -0.05578000       0.00123200      -0.00703500      -0.02346600
V        3.80432000       6.39286000       2.49624000      -0.00203500      -0.03999500       0.26872300
Cr      -2.51089000       4.36330000       8.61021000      -0.03258700       0.01967500       0.00256100
Cr       2.49511000       8.73366000      -5.91925000       0.01717500       0.04094900       0.31963900
Cr       7.54977000      -0.00926000      -0.10510000      -0.10031700       0.15097200       0.19530100
Cr       6.27264000       2.15505000       1.69715000      -0.00211700      -0.00097100       0.02231400
Cr       4.98079000       4.36643000       3.46931000       0.09017700      -0.12488100      -0.12764900
W       -0.02459000       4.33582000       2.61613000       0.02684200      -0.00682100       0.00591500
63
Lattice="10.00797953 -0.027286836 -3.513990499 -5.046165221 8.78649451 -3.565370368 -0.013018027 -0.085404851 10.50494526" Properties=species:S:1:pos:R:3:forces:R:3 energy=-553.30428801 stress="-0.006142943213767309 0.00015228033965329973 0.00011700333007380755 0.00015228033965329973 -0.007220052926639236 0.0001694070406947234 0.00011700333007380755 0.0001694070406947234 -0.0064536018474898975" free_energy=-553.30477496 pbc="T T T"
Zr       7.41796000       4.35768000      -2.64063000      -0.06615300      -0.02885600      -0.03867500
Zr       1.21212000       2.07205000       8.73394000       0.02043700      -0.03819400      -0.00234400
Zr       3.68252000       2.08788000       5.22266000       0.01934000       0.05630900       0.00923400
Zr       7.48766000      -0.03696000       2.56086000       0.01116700      -0.05927800       0.01724700
Zr       6.28808000       1.82779000       6.84250000      -0.01288900       0.00564600      -0.00146800
Zr       5.04225000       4.29357000       0.74364000      -0.01687900       0.04162200      -0.03055200
Ti       4.92121000       8.74451000      -7.05101000      -0.03510300      -0.02659700      -0.01334800
Ti      -2.57484000       8.72596000      -1.77361000      -0.10967300      -0.06581400      -0.01703600
Ti      -0.16896000       8.69146000      -0.02736000       0.02141500       0.02423300       0.00312200
Ti       3.90518000       2.23203000      -2.34423000      -0.00293100       0.01604500      -0.03467300
Ti       1.23249000       6.60681000      -4.31941000       0.54142400      -0.03577800      -0.19568900
Ti       1.27981000       6.56318000       3.43899000      -0.01764200       0.03796300      -0.09638300
V        9.93973000       0.01196000      -0.76914000      -0.23552600      -0.31264400      -0.12297100
V        0.05795000      -0.02232000       5.21557000      -0.06874100      -0.03588600      -0.08051700
V        4.89241000       8.57460000       0.72515000      -0.00618000       0.01311000       0.06753300
V       -1.27714000       2.22843000       9.52822000       0.01639200      -0.07259500       0.00248000
V       -1.19909000       2.09558000       1.77035000      -0.08802300      -0.03974600      -0.01765900
V       -1.28229000       2.17976000       4.36670000       0.03028300      -0.04197800      -0.02854300
V       -1.20702000       2.25118000       6.93551000      -0.01072700      -0.04843100       0.00097200
V       -2.35103000       4.37865000       3.57277000      -0.06215500       0.03574000      -0.00871400
V       -2.49355000       4.37211000       6.07873000      -0.01358300       0.06479100       0.02531400
V        6.25165000       6.34529000       4.25527000      -0.31736500      -0.08714900       0.14602700
V       -3.84089000       6.66563000      -0.12920000       0.16864400       0.03871400       0.06005200
V       -3.79971000       6.58551000       2.57499000      -0.06353700      -0.02272800      -0.00520200
V       -3.73442000       6.59314000       5.22801000      -0.09777900      -0.01231500       0.08611600
V       -2.45967000       8.55119000       6.07906000      -0.04987200       0.04352700       0.01991800
V       -2.72375000       8.59639000       0.90289000       0.00011600      -0.00291800      -0.11729000
V       -2.59765000       8.63886000       3.47557000       0.03163500       0.03088800       0.00144300
V        1.21897000       2.22613000       0.99999000       0.00743400      -0.07401100      -0.04116500
V        1.22184000       2.16540000       3.49115000       0.02687600      -0.03083900      -0.01289600
V        1.06172000       2.18252000       5.98578000       0.05739200       0.02149100      -0.00763000
V       -0.10941000       4.40103000       7.79483000       0.02438100       0.02046100      -0.00030300
V        0.03543000       4.39094000      -0.06117000      -0.01659700      -0.00056000       0.00263800
V        0.00171000       4.34351000       5.22177000       0.11025500       0.09678700       0.02835500
V       -1.32042000       6.60390000      -3.53214000       0.08137500       0.01003900      -0.02066200
V       -1.35166000       6.43563000      -0.98248000      -0.05633600       0.06721300      -0.02360000
V       -1.26974000       6.57862000       1.74955000      -0.02293900      -0.02717300      -0.00836500
V       -1.30822000       6.48493000       4.40114000       0.01573500      -0.03192900       0.00706400
V       -0.01101000       8.69342000      -5.25278000       0.09622500      -0.03465400      -0.03081900
V       -0.00860000       8.71928000      -2.72335000      -0.00331500      -0.04244400       0.04131900
V       -0.22611000       8.43068000       2.66094000       0.11444400       0.01693400       0.00560000
V        3.65053000       1.97284000       0.17418000      -0.00202800       0.03159600      -0.02521100
V        3.81318000       2.25076000       2.51834000      -0.04371200       0.00962600       0.06473300
V        2.43914000       4.32719000       6.94662000      -0.21333900      -0.21599500       0.24575400
V        2.46597000       4.47488000      -0.92845000       0.00502000       0.01130200      -0.06624800
V        2.39686000       4.36288000       1.73427000       0.08056000       0.07381900       0.07841100
V        2.49925000       4.34748000       4.29554000       0.21348400       0.24989100       0.16445500
V        1.09778000       6.46948000      -1.74745000       0.06866500       0.05923300      -0.12257500
V        1.22346000       6.49560000       0.76588000       0.04621100       0.00746100       0.08625800
V        2.54070000       8.55907000       1.74820000       0.07051500      -0.06041900       0.09508700
V        6.33514000       2.03068000      -0.71592000      -0.00102000      -0.02136600      -0.11249000
V        6.32605000       2.34600000       4.06432000      -0.05294000       0.01195300       0.07896100
V        5.02318000       4.41447000       5.90667000      -0.23414700       0.37055000      -0.18500300
V        4.77821000       4.63741000      -2.02811000      -0.01323000       0.02198300      -0.11828000
V        3.66640000       6.61572000      -2.72298000       0.05479900      -0.09339600      -0.41898700
V        3.70797000       6.53325000      -0.05573000      -0.00027000      -0.00703600      -0.01977500
V        3.80847000       6.39876000       2.49734000       0.00007700      -0.04361300       0.25604300
Cr      -2.51250000       4.36646000       8.61865000      -0.03677100       0.02338500      -0.00094900
Cr       2.49772000       8.73961000      -5.92908000       0.01416100       0.06628300       0.35590600
Cr       7.55831000      -0.01106000      -0.10549000      -0.10232100       0.17010000       0.17430700
Cr       6.27913000       2.15701000       1.69893000      -0.00109500       0.00042400       0.02173600
Cr       4.98495000       4.37156000       3.47399000       0.10088600      -0.13299200      -0.13018900
W       -0.02450000       4.33925000       2.61842000       0.02547100      -0.00178400       0.01012800
63
Lattice="10.008426281 -0.028280566 -3.515690492 -5.04675246 8.792972327 -3.56569172 -0.014183318 -0.085812714 10.506689212" Properties=species:S:1:pos:R:3:forces:R:3 energy=-553.37623213 stress="-0.005136874357766188 0.0001456955475254929 -5.276571815021707e-05 0.0001456955475254929 -0.005890817452627256 0.0002629173304187064 -5.276571815021707e-05 0.0002629173304187064 -0.00538622888885435" free_energy=-553.37695878 pbc="T T T"
Zr       7.41587000       4.35963000      -2.64354000      -0.05141200      -0.04218500      -0.03748000
Zr       1.21150000       2.07169000       8.73500000       0.00989400      -0.02935100       0.00323900
Zr       3.68246000       2.09187000       5.22313000       0.00902100       0.01877000       0.00441100
Zr       7.48791000      -0.04019000       2.56029000       0.01714300      -0.04590600       0.03922200
Zr       6.28696000       1.82759000       6.84324000      -0.01135200       0.01312400      -0.01255600
Zr       5.04094000       4.29792000       0.74342000      -0.01425800       0.01348800      -0.06438300
Ti       4.92005000       8.74928000      -7.05376000      -0.04335900      -0.01782900      -0.01676300
Ti      -2.57946000       8.72940000      -1.77435000      -0.09712500      -0.04677100      -0.02925600
Ti      -0.16923000       8.69784000      -0.02757000       0.01097200       0.01971100       0.00248000
Ti       3.90492000       2.23397000      -2.34606000       0.01035000       0.00073300      -0.02214800
Ti       1.25137000       6.61034000      -4.32694000       0.48769100      -0.04047000      -0.18146100
Ti       1.27703000       6.56827000       3.43464000      -0.00226400       0.04516600      -0.06949500