  64  64   1   0
  0.2727090E+02  0.1204000E-08  0.1204000E-08  0.1204000E-08  0.2500000E-15
   1.0000000000000000E-004
  CAR 
 unknown system                          
     10.69653419    -38.73812819  301      6.14319504      1.00000000
    -38.738  0.0000E+00  0.0000E+00
    -38.573  0.0000E+00  0.0000E+00
    -38.409  0.0000E+00  0.0000E+00
    -38.244 -0.4418E-34 -0.7280E-35
    -38.079 -0.3795E-28 -0.6254E-29
    -37.914 -0.8299E-23 -0.1368E-23
    -37.749 -0.4608E-18 -0.7593E-19
    -37.585 -0.6265E-14 -0.1032E-14
    -37.420 -0.2193E-10 -0.3615E-11
    -37.255 -0.1914E-07 -0.3157E-08
    -37.090 -0.4124E-05 -0.6828E-06
    -36.926 -0.2165E-03 -0.3635E-04
    -36.761 -0.2583E-02 -0.4620E-03
    -36.596 -0.8273E-03 -0.5983E-03
    -36.431  0.6737E-01  0.1050E-01
    -36.266  0.1859E+00  0.4113E-01
    -36.102  0.1164E+00  0.6031E-01
    -35.937  0.2984E-02  0.6080E-01
    -35.772 -0.4539E-02  0.6005E-01
    -35.607 -0.3163E-03  0.6000E-01
    -35.442 -0.4420E-05  0.6000E-01
    -35.278 -0.1456E-07  0.6000E-01
    -35.113 -0.1179E-10  0.6000E-01
    -34.948 -0.2381E-14  0.6000E-01
    -34.783  0.0000E+00  0.6000E-01
    -34.619  0.0000E+00  0.6000E-01
    -34.454  0.0000E+00  0.6000E-01
    -34.289  0.0000E+00  0.6000E-01
    -34.124  0.0000E+00  0.6000E-01
    -33.959  0.0000E+00  0.6000E-01
    -33.795  0.0000E+00  0.6000E-01
    -33.630  0.0000E+00  0.6000E-01
    -33.465 -0.1647E-32  0.6000E-01
    -33.300 -0.1005E-26  0.6000E-01
    -33.136 -0.1589E-21  0.6000E-01
    -32.971 -0.6609E-17  0.6000E-01
    -32.806 -0.7018E-13  0.6000E-01
    -32.641 -0.2028E-09  0.6000E-01
    -32.476 -0.1558E-06  0.6000E-01
    -32.312 -0.3183E-04  0.5999E-01
    -32.147 -0.1693E-02  0.5972E-01
    -31.982 -0.2056E-01  0.5633E-01
    -31.817  0.7185E-02  0.5751E-01
    -31.652  0.5130E+00  0.1421E+00
    -31.488  0.1104E+01  0.3239E+00
    -31.323  0.1121E+01  0.5087E+00
    -31.158  0.1328E+01  0.7274E+00
    -30.993  0.1537E+01  0.9806E+00
    -30.829  0.1238E+01  0.1185E+01
    -30.664  0.2738E+00  0.1230E+01
    -30.499 -0.4830E-01  0.1222E+01
    -30.334 -0.1036E-01  0.1220E+01
    -30.169 -0.3407E-03  0.1220E+01
    -30.005 -0.2631E-05  0.1220E+01
    -29.840 -0.5109E-08  0.1220E+01
    -29.675 -0.2543E-11  0.1220E+01
    -29.510 -0.3223E-15  0.1220E+01
    -29.346  0.0000E+00  0.1220E+01
    -29.181  0.0000E+00  0.1220E+01
    -29.016  0.0000E+00  0.1220E+01
    -28.851  0.0000E+00  0.1220E+01
    -28.686  0.0000E+00  0.1220E+01
    -28.522  0.0000E+00  0.1220E+01
    -28.357  0.0000E+00  0.1220E+01
    -28.192  0.0000E+00  0.1220E+01
    -28.027  0.0000E+00  0.1220E+01
    -27.863 -0.2308E-28  0.1220E+01
    -27.698 -0.6641E-23  0.1220E+01
    -27.533 -0.4859E-18  0.1220E+01
    -27.368 -0.8733E-14  0.1220E+01
    -27.203 -0.4035E-10  0.1220E+01
    -27.039 -0.4623E-07  0.1220E+01
    -26.874 -0.1281E-04  0.1220E+01
    -26.709 -0.8061E-03  0.1220E+01
    -26.544 -0.8882E-02  0.1218E+01
    -26.379  0.2463E-01  0.1222E+01
    -26.215  0.2055E+00  0.1256E+01
    -26.050  0.1506E+00  0.1281E+01
    -25.885 -0.1223E-02  0.1281E+01
    -25.720 -0.5369E-02  0.1280E+01
    -25.556 -0.2689E-03  0.1280E+01
    -25.391 -0.2689E-05  0.1280E+01
    -25.226 -0.6273E-08  0.1280E+01
    -25.061 -0.3576E-11  0.1280E+01
    -24.896 -0.5121E-15  0.1280E+01
    -24.732  0.0000E+00  0.1280E+01
    -24.567  0.0000E+00  0.1280E+01
    -24.402  0.0000E+00  0.1280E+01
    -24.237  0.0000E+00  0.1280E+01
    -24.073  0.0000E+00  0.1280E+01
    -23.908  0.0000E+00  0.1280E+01
    -23.743  0.0000E+00  0.1280E+01
    -23.578  0.0000E+00  0.1280E+01
    -23.413  0.0000E+00  0.1280E+01
    -23.249  0.0000E+00  0.1280E+01
    -23.084  0.0000E+00  0.1280E+01
    -22.919  0.0000E+00  0.1280E+01
    -22.754  0.0000E+00  0.1280E+01
    -22.589  0.0000E+00  0.1280E+01
    -22.425  0.0000E+00  0.1280E+01
    -22.260  0.0000E+00  0.1280E+01
    -22.095  0.0000E+00  0.1280E+01
    -21.930  0.0000E+00  0.1280E+01
    -21.766  0.0000E+00  0.1280E+01
    -21.601  0.0000E+00  0.1280E+01
    -21.436  0.0000E+00  0.1280E+01
    -21.271  0.0000E+00  0.1280E+01
    -21.106  0.0000E+00  0.1280E+01
    -20.942  0.0000E+00  0.1280E+01
    -20.777  0.0000E+00  0.1280E+01
    -20.612  0.0000E+00  0.1280E+01
    -20.447  0.0000E+00  0.1280E+01
    -20.283  0.0000E+00  0.1280E+01
    -20.118  0.0000E+00  0.1280E+01
    -19.953  0.0000E+00  0.1280E+01
    -19.788  0.0000E+00  0.1280E+01
    -19.623  0.0000E+00  0.1280E+01
    -19.459  0.0000E+00  0.1280E+01
    -19.294  0.0000E+00  0.1280E+01
    -19.129  0.0000E+00  0.1280E+01
    -18.964  0.0000E+00  0.1280E+01
    -18.799  0.0000E+00  0.1280E+01
    -18.635  0.0000E+00  0.1280E+01
    -18.470  0.0000E+00  0.1280E+01
    -18.305  0.0000E+00  0.1280E+01
    -18.140  0.0000E+00  0.1280E+01
    -17.976  0.0000E+00  0.1280E+01
    -17.811  0.0000E+00  0.1280E+01
    -17.646  0.0000E+00  0.1280E+01
    -17.481  0.0000E+00  0.1280E+01
    -17.316  0.0000E+00  0.1280E+01
    -17.152  0.0000E+00  0.1280E+01
    -16.987  0.0000E+00  0.1280E+01
    -16.822  0.0000E+00  0.1280E+01
    -16.657  0.0000E+00  0.1280E+01
    -16.493  0.0000E+00  0.1280E+01
    -16.328  0.0000E+00  0.1280E+01
    -16.163  0.0000E+00  0.1280E+01
    -15.998  0.0000E+00  0.1280E+01
    -15.833  0.0000E+00  0.1280E+01
    -15.669  0.0000E+00  0.1280E+01
    -15.504  0.0000E+00  0.1280E+01
    -15.339  0.0000E+00  0.1280E+01
    -15.174  0.0000E+00  0.1280E+01
    -15.009  0.0000E+00  0.1280E+01
    -14.845  0.0000E+00  0.1280E+01
    -14.680  0.0000E+00  0.1280E+01
    -14.515  0.0000E+00  0.1280E+01
    -14.350  0.0000E+00  0.1280E+01
    -14.186  0.0000E+00  0.1280E+01
    -14.021  0.0000E+00  0.1280E+01
    -13.856  0.0000E+00  0.1280E+01
    -13.691  0.0000E+00  0.1280E+01
    -13.526  0.0000E+00  0.1280E+01
    -13.362  0.0000E+00  0.1280E+01
    -13.197  0.0000E+00  0.1280E+01
    -13.032  0.0000E+00  0.1280E+01
    -12.867  0.0000E+00  0.1280E+01
    -12.703  0.0000E+00  0.1280E+01
    -12.538  0.0000E+00  0.1280E+01
    -12.373  0.0000E+00  0.1280E+01
    -12.208  0.0000E+00  0.1280E+01
    -12.043  0.0000E+00  0.1280E+01
    -11.879  0.0000E+00  0.1280E+01
    -11.714  0.0000E+00  0.1280E+01
    -11.549  0.0000E+00  0.1280E+01
    -11.384  0.0000E+00  0.1280E+01
    -11.219  0.0000E+00  0.1280E+01
    -11.055  0.0000E+00  0.1280E+01
    -10.890  0.0000E+00  0.1280E+01
    -10.725  0.0000E+00  0.1280E+01
    -10.560  0.0000E+00  0.1280E+01
    -10.396  0.0000E+00  0.1280E+01
    -10.231  0.0000E+00  0.1280E+01
    -10.066  0.0000E+00  0.1280E+01
     -9.901  0.0000E+00  0.1280E+01
     -9.736  0.0000E+00  0.1280E+01
     -9.572  0.0000E+00  0.1280E+01
     -9.407  0.0000E+00  0.1280E+01
     -9.242  0.0000E+00  0.1280E+01
     -9.077  0.0000E+00  0.1280E+01
     -8.913  0.0000E+00  0.1280E+01
     -8.748  0.0000E+00  0.1280E+01
     -8.583  0.0000E+00  0.1280E+01
     -8.418  0.0000E+00  0.1280E+01
     -8.253  0.0000E+00  0.1280E+01
     -8.089  0.0000E+00  0.1280E+01
     -7.924  0.0000E+00  0.1280E+01
     -7.759  0.0000E+00  0.1280E+01
     -7.594  0.0000E+00  0.1280E+01
     -7.430  0.0000E+00  0.1280E+01
     -7.265  0.0000E+00  0.1280E+01
     -7.100  0.0000E+00  0.1280E+01
     -6.935  0.0000E+00  0.1280E+01
     -6.770  0.0000E+00  0.1280E+01
     -6.606  0.0000E+00  0.1280E+01
     -6.441  0.0000E+00  0.1280E+01
     -6.276  0.0000E+00  0.1280E+01
     -6.111  0.0000E+00  0.1280E+01
     -5.946  0.0000E+00  0.1280E+01
     -5.782  0.0000E+00  0.1280E+01
     -5.617  0.0000E+00  0.1280E+01
     -5.452  0.0000E+00  0.1280E+01
     -5.287  0.0000E+00  0.1280E+01
     -5.123  0.0000E+00  0.1280E+01
     -4.958  0.0000E+00  0.1280E+01
     -4.793  0.0000E+00  0.1280E+01
     -4.628  0.0000E+00  0.1280E+01
     -4.463  0.0000E+00  0.1280E+01
     -4.299  0.0000E+00  0.1280E+01
     -4.134  0.0000E+00  0.1280E+01
     -3.969  0.0000E+00  0.1280E+01
     -3.804  0.0000E+00  0.1280E+01
     -3.640  0.0000E+00  0.1280E+01
     -3.475  0.0000E+00  0.1280E+01
     -3.310  0.0000E+00  0.1280E+01
     -3.145  0.0000E+00  0.1280E+01
     -2.980  0.0000E+00  0.1280E+01
     -2.816  0.0000E+00  0.1280E+01
     -2.651  0.0000E+00  0.1280E+01
     -2.486  0.0000E+00  0.1280E+01
     -2.321  0.0000E+00  0.1280E+01
     -2.156 -0.7351E-32  0.1280E+01
     -1.992 -0.3126E-26  0.1280E+01
     -1.827 -0.3378E-21  0.1280E+01
     -1.662 -0.8969E-17  0.1280E+01
     -1.497 -0.6141E-13  0.1280E+01
     -1.333 -0.1044E-09  0.1280E+01
     -1.168 -0.4322E-07  0.1280E+01
     -1.003 -0.4160E-05  0.1280E+01
     -0.838 -0.7909E-04  0.1280E+01
     -0.673  0.4926E-05  0.1280E+01
     -0.509  0.2174E-02  0.1280E+01
     -0.344  0.2655E-02  0.1281E+01
     -0.179 -0.1090E-02  0.1281E+01
     -0.014  0.3973E-02  0.1281E+01
      0.150  0.3255E-01  0.1287E+01
      0.315  0.2563E-01  0.1291E+01
      0.480  0.5114E-03  0.1291E+01
      0.645  0.6893E-02  0.1292E+01
      0.810  0.1626E-01  0.1295E+01
      0.974  0.3649E-02  0.1295E+01
      1.139  0.1934E-01  0.1299E+01
      1.304  0.7142E-01  0.1310E+01
      1.469  0.3716E-01  0.1316E+01
      1.634  0.1938E-01  0.1320E+01
      1.798  0.2911E-01  0.1324E+01
      1.963  0.8391E-02  0.1326E+01
      2.128  0.4628E-01  0.1333E+01
      2.293  0.6651E-01  0.1344E+01
      2.457  0.6119E-02  0.1345E+01
      2.622  0.2307E-01  0.1349E+01
      2.787  0.1584E+00  0.1375E+01
      2.952  0.1645E+00  0.1402E+01
      3.117  0.5554E-01  0.1412E+01
      3.281  0.2252E+00  0.1449E+01
      3.446  0.3314E+00  0.1503E+01
      3.611  0.1289E+00  0.1525E+01
      3.776  0.1136E+00  0.1543E+01
      3.940  0.4484E+00  0.1617E+01
      4.105  0.4486E+00  0.1691E+01
      4.270  0.1365E+00  0.1714E+01
      4.435  0.5385E-01  0.1722E+01
      4.600  0.1582E+00  0.1748E+01
      4.764  0.1823E+00  0.1779E+01
      4.929  0.3164E+00  0.1831E+01
      5.094  0.5192E+00  0.1916E+01
      5.259  0.4229E+00  0.1986E+01
      5.424  0.4014E+00  0.2052E+01
      5.588  0.3828E+00  0.2115E+01
      5.753  0.4411E+00  0.2188E+01
      5.918  0.4770E+00  0.2266E+01
      6.083  0.3653E+00  0.2327E+01
      6.247  0.3138E+00  0.2378E+01
      6.412  0.2360E+00  0.2417E+01
      6.577  0.2366E+00  0.2456E+01
      6.742  0.1586E+00  0.2482E+01
      6.907  0.1170E+00  0.2502E+01
      7.071  0.2150E+00  0.2537E+01
      7.236  0.1343E+00  0.2559E+01
      7.401  0.8216E-01  0.2573E+01
      7.566  0.1812E+00  0.2603E+01
      7.730  0.1673E+00  0.2630E+01
      7.895  0.2283E+00  0.2668E+01
      8.060  0.4712E+00  0.2745E+01
      8.225  0.3449E+00  0.2802E+01
      8.390  0.6441E-01  0.2813E+01
      8.554  0.4366E-02  0.2814E+01
      8.719 -0.6081E-03  0.2813E+01
      8.884 -0.7580E-03  0.2813E+01
      9.049 -0.6298E-04  0.2813E+01
      9.213 -0.1090E-05  0.2813E+01
      9.378 -0.4545E-08  0.2813E+01
      9.543 -0.4740E-11  0.2813E+01
      9.708 -0.1253E-14  0.2813E+01
      9.873  0.0000E+00  0.2813E+01
     10.037  0.0000E+00  0.2813E+01
     10.202  0.0000E+00  0.2813E+01
     10.367  0.0000E+00  0.2813E+01
     10.532  0.0000E+00  0.2813E+01
     10.697  0.0000E+00  0.2813E+01
     10.69653419    -38.73812819  301      6.14319504      1.00000000
    -38.738  0.0000E+00  0.0000E+00  0.0000E+00  0.0000E+00  0.0000E+00  0.0000E+00  0.0000E+00  0.0000E+00  0.0000E+00
    -38.573  0.0000E+00  0.0000E+00  0.0000E+00  0.0000E+00  0.0000E+00  0.0000E+00  0.0000E+00  0.0000E+00  0.0000E+00
    -38.409  0.0000E+00  0.0000E+00  0.0000E+00  0.0000E+00  0.0000E+00  0.0000E+00  0.0000E+00  0.0000E+00  0.0000E+00
    -38.244 -0.1004E-41 -0.3133E-41 -0.5929E-41 -0.9256E-41 -0.2112E-41 -0.1368E-41 -0.1816E-41 -0.2252E-41 -0.1395E-42
    -38.079 -0.8653E-36 -0.2696E-35 -0.5100E-35 -0.7948E-35 -0.1813E-35 -0.1176E-35 -0.1560E-35 -0.1934E-35 -0.1202E-36
    -37.914 -0.1909E-30 -0.5931E-30 -0.1119E-29 -0.1739E-29 -0.3968E-30 -0.2581E-30 -0.3412E-30 -0.4230E-30 -0.2644E-31
    -37.749 -0.1099E-25 -0.3383E-25 -0.6297E-25 -0.9703E-25 -0.2219E-25 -0.1456E-25 -0.1897E-25 -0.2361E-25 -0.1497E-26
    -37.585 -0.1818E-21 -0.5348E-21 -0.9246E-21 -0.1378E-20 -0.3194E-21 -0.2177E-21 -0.2602E-21 -0.3362E-21 -0.2232E-22
    -37.420 -0.1391E-17 -0.3605E-17 -0.4823E-17 -0.6407E-17 -0.1587E-17 -0.1225E-17 -0.9639E-18 -0.1589E-17 -0.1176E-18
    -37.255 -0.6177E-14 -0.1433E-13 -0.1471E-13 -0.1658E-13 -0.4566E-14 -0.4090E-14 -0.1181E-14 -0.4288E-14 -0.3485E-15
    -37.090 -0.9611E-11 -0.2146E-10 -0.2085E-10 -0.2226E-10 -0.6304E-11 -0.5894E-11 -0.7903E-12 -0.5930E-11 -0.4761E-12
    -36.926 -0.3911E-08 -0.8558E-08 -0.8439E-08 -0.8922E-08 -0.2500E-08 -0.2357E-08 -0.2480E-09 -0.2419E-08 -0.1889E-09
    -36.761 -0.3755E-06 -0.8065E-06 -0.8172E-06 -0.8589E-06 -0.2364E-06 -0.2242E-06 -0.2149E-07 -0.2364E-06 -0.1808E-07
    -36.596 -0.7171E-05 -0.1505E-04 -0.1580E-04 -0.1648E-04 -0.4432E-05 -0.4236E-05 -0.3727E-06 -0.4617E-05 -0.3463E-06
    -36.431  0.7542E-07  0.2137E-05 -0.9088E-06 -0.3159E-06  0.5072E-06  0.3104E-06  0.1952E-06 -0.5176E-06 -0.6173E-08
    -36.266  0.1981E-03  0.4121E-03  0.4383E-03  0.4562E-03  0.1216E-03  0.1165E-03  0.9958E-05  0.1285E-03  0.9586E-05
    -36.102  0.2582E-03  0.5229E-03  0.5791E-03  0.5986E-03  0.1552E-03  0.1499E-03  0.1171E-04  0.1717E-03  0.1259E-04
    -35.937  0.2831E-04  0.5395E-04  0.6524E-04  0.6661E-04  0.1627E-04  0.1595E-04  0.1005E-05  0.1978E-04  0.1404E-05
    -35.772 -0.1103E-04 -0.2218E-04 -0.2483E-04 -0.2562E-04 -0.6594E-05 -0.6382E-05 -0.4856E-06 -0.7381E-05 -0.5389E-06
    -35.607 -0.9596E-06 -0.1874E-05 -0.2187E-05 -0.2245E-05 -0.5619E-06 -0.5471E-06 -0.3805E-07 -0.6574E-06 -0.4730E-07
    -35.442 -0.1481E-07 -0.2832E-07 -0.3406E-07 -0.3486E-07 -0.8545E-08 -0.8352E-08 -0.5438E-09 -0.1032E-07 -0.7353E-09
    -35.278 -0.5206E-10 -0.9760E-10 -0.1207E-09 -0.1232E-09 -0.2964E-10 -0.2906E-10 -0.1781E-11 -0.3682E-10 -0.2603E-11
    -35.113 -0.4435E-13 -0.8156E-13 -0.1036E-12 -0.1056E-12 -0.2494E-13 -0.2451E-13 -0.1419E-14 -0.3181E-13 -0.2233E-14
    -34.948 -0.9367E-17 -0.1690E-16 -0.2202E-16 -0.2242E-16 -0.5203E-17 -0.5125E-17 -0.2798E-18 -0.6810E-17 -0.4748E-18
    -34.783  0.0000E+00  0.0000E+00  0.0000E+00  0.0000E+00  0.0000E+00  0.0000E+00  0.0000E+00  0.0000E+00  0.0000E+00
    -34.619  0.0000E+00  0.0000E+00  0.0000E+00  0.0000E+00  0.0000E+00  0.0000E+00  0.0000E+00  0.0000E+00  0.0000E+00
    -34.454  0.0000E+00  0.0000E+00  0.0000E+00  0.0000E+00  0.0000E+00  0.0000E+00  0.0000E+00  0.0000E+00  0.0000E+00
    -34.289  0.0000E+00  0.0000E+00  0.0000E+00  0.0000E+00  0.0000E+00  0.0000E+00  0.0000E+00  0.0000E+00  0.0000E+00
    -34.124  0.0000E+00  0.0000E+00  0.0000E+00  0.0000E+00  0.0000E+00  0.0000E+00  0.0000E+00  0.0000E+00  0.0000E+00
    -33.959  0.0000E+00  0.0000E+00  0.0000E+00  0.0000E+00  0.0000E+00  0.0000E+00  0.0000E+00  0.0000E+00  0.0000E+00
    -33.795  0.0000E+00  0.0000E+00  0.0000E+00  0.0000E+00  0.0000E+00  0.0000E+00  0.0000E+00  0.0000E+00  0.0000E+00
    -33.630  0.0000E+00  0.0000E+00  0.0000E+00  0.0000E+00  0.0000E+00  0.0000E+00  0.0000E+00  0.0000E+00  0.0000E+00
    -33.465 -0.1506E-36 -0.6064E-35 -0.1941E-34 -0.1137E-34 -0.5162E-37 -0.5515E-37 -0.9071E-37 -0.1043E-36 -0.4055E-37
    -33.300 -0.1283E-30 -0.3839E-29 -0.1093E-28 -0.6876E-29 -0.3871E-31 -0.4005E-31 -0.7442E-31 -0.7128E-31 -0.3662E-31
    -33.136 -0.2626E-25 -0.6239E-24 -0.1586E-23 -0.1063E-23 -0.7309E-26 -0.7251E-26 -0.1485E-25 -0.1258E-25 -0.7625E-26
    -32.971 -0.1411E-20 -0.2644E-19 -0.5975E-19 -0.4254E-19 -0.3662E-21 -0.3481E-21 -0.7722E-21 -0.5859E-21 -0.4212E-21
    -32.806 -0.1924E-16 -0.2831E-15 -0.5664E-15 -0.4275E-15 -0.4704E-17 -0.4302E-17 -0.1013E-16 -0.6954E-17 -0.5962E-17
    -32.641 -0.7053E-13 -0.8148E-12 -0.1442E-11 -0.1151E-11 -0.1637E-13 -0.1455E-13 -0.3551E-13 -0.2228E-13 -0.2280E-13
    -32.476 -0.6778E-10 -0.6165E-09 -0.9654E-09 -0.8129E-09 -0.1504E-10 -0.1319E-10 -0.3245E-10 -0.1884E-10 -0.2293E-10
    -32.312 -0.1706E-07 -0.1231E-06 -0.1703E-06 -0.1511E-06 -0.3653E-08 -0.3211E-08 -0.7717E-08 -0.4219E-08 -0.6025E-08
    -32.147 -0.1107E-05 -0.6436E-05 -0.7803E-05 -0.7286E-05 -0.2316E-06 -0.2073E-06 -0.4679E-06 -0.2477E-06 -0.4033E-06
    -31.982 -0.1676E-04 -0.8064E-04 -0.8270E-04 -0.8151E-04 -0.3477E-05 -0.3213E-05 -0.6373E-05 -0.3412E-05 -0.6081E-05
    -31.817 -0.1351E-04 -0.3362E-04  0.3571E-04  0.9824E-05 -0.2619E-05 -0.3058E-05  0.5082E-07 -0.9490E-06 -0.2345E-05
    -31.652  0.4295E-03  0.1963E-02  0.2012E-02  0.1956E-02  0.8824E-04  0.8170E-04  0.1564E-03  0.8575E-04  0.1496E-03
    -31.488  0.1117E-02  0.5606E-02  0.5079E-02  0.5375E-02  0.2243E-03  0.2156E-03  0.3354E-03  0.2021E-03  0.3342E-03
    -31.323  0.1057E-02  0.6915E-02  0.6254E-02  0.6692E-02  0.2443E-03  0.2379E-03  0.4502E-03  0.2218E-03  0.4827E-03
    -31.158  0.8568E-03  0.5772E-02  0.5680E-02  0.5624E-02  0.2661E-03  0.2496E-03  0.6440E-03  0.2474E-03  0.6715E-03
    -30.993  0.5507E-03  0.4144E-02  0.4653E-02  0.3849E-02  0.2055E-03  0.1918E-03  0.5629E-03  0.1963E-03  0.4901E-03
    -30.829  0.4452E-03  0.3346E-02  0.3762E-02  0.3127E-02  0.1111E-03  0.1147E-03  0.4440E-03  0.1151E-03  0.3900E-03
    -30.664  0.1244E-03  0.9098E-03  0.8204E-03  0.9816E-03  0.2205E-04  0.2275E-04  0.1111E-03  0.2325E-04  0.1226E-03
    -30.499 -0.1905E-04 -0.1348E-03 -0.1610E-03 -0.1172E-03 -0.4574E-05 -0.4898E-05 -0.1872E-04 -0.4811E-05 -0.1561E-04
    -30.334 -0.4406E-05 -0.3318E-04 -0.2981E-04 -0.3605E-04 -0.9348E-06 -0.9150E-06 -0.3988E-05 -0.9460E-06 -0.4382E-05
    -30.169 -0.1404E-06 -0.1119E-05 -0.8684E-06 -0.1330E-05 -0.2978E-07 -0.2715E-07 -0.1224E-06 -0.2928E-07 -0.1508E-06
    -30.005 -0.1017E-08 -0.8668E-08 -0.5965E-08 -0.1100E-07 -0.2191E-09 -0.1871E-09 -0.8585E-09 -0.2108E-09 -0.1153E-08
    -29.840 -0.1820E-11 -0.1682E-10 -0.1041E-10 -0.2242E-10 -0.3998E-12 -0.3210E-12 -0.1490E-11 -0.3785E-12 -0.2147E-11
    -29.675 -0.8243E-15 -0.8381E-14 -0.4721E-14 -0.1160E-13 -0.1849E-15 -0.1402E-15 -0.6572E-15 -0.1730E-15 -0.1004E-14
    -29.510 -0.9540E-19 -0.1042E-17 -0.5310E-18 -0.1568E-17 -0.2268E-19 -0.1626E-19 -0.7702E-19 -0.1923E-19 -0.1214E-18
    -29.346  0.0000E+00  0.0000E+00  0.0000E+00  0.0000E+00  0.0000E+00  0.0000E+00  0.0000E+00  0.0000E+00  0.0000E+00
    -29.181  0.0000E+00  0.0000E+00  0.0000E+00  0.0000E+00  0.0000E+00  0.0000E+00  0.0000E+00  0.0000E+00  0.0000E+00
    -29.016  0.0000E+00  0.0000E+00  0.0000E+00  0.0000E+00  0.0000E+00  0.0000E+00  0.0000E+00  0.0000E+00  0.0000E+00
    -28.851  0.0000E+00  0.0000E+00  0.0000E+00  0.0000E+00  0.0000E+00  0.0000E+00  0.0000E+00  0.0000E+00  0.0000E+00
    -28.686  0.0000E+00  0.0000E+00  0.0000E+00  0.0000E+00  0.0000E+00  0.0000E+00  0.0000E+00  0.0000E+00  0.0000E+00
    -28.522  0.0000E+00  0.0000E+00  0.0000E+00  0.0000E+00  0.0000E+00  0.0000E+00  0.0000E+00  0.0000E+00  0.0000E+00
    -28.357  0.0000E+00  0.0000E+00  0.0000E+00  0.0000E+00  0.0000E+00  0.0000E+00  0.0000E+00  0.0000E+00  0.0000E+00
    -28.192  0.0000E+00  0.0000E+00  0.0000E+00  0.0000E+00  0.0000E+00  0.0000E+00  0.0000E+00  0.0000E+00  0.0000E+00
    -28.027  0.0000E+00  0.0000E+00  0.0000E+00  0.0000E+00  0.0000E+00  0.0000E+00  0.0000E+00  0.0000E+00  0.0000E+00
    -27.863 -0.1154E-33 -0.9450E-27 -0.9562E-27 -0.8303E-27 -0.5317E-34 -0.9392E-34 -0.2395E-33 -0.1614E-33 -0.5381E-34
    -27.698 -0.3330E-28 -0.2668E-21 -0.2698E-21 -0.2380E-21 -0.1521E-28 -0.2686E-28 -0.6771E-28 -0.4629E-28 -0.1509E-28
    -27.533 -0.2442E-23 -0.1914E-16 -0.1934E-16 -0.1732E-16 -0.1106E-23 -0.1953E-23 -0.4864E-23 -0.3372E-23 -0.1075E-23
    -27.368 -0.4391E-19 -0.3368E-12 -0.3400E-12 -0.3094E-12 -0.1974E-19 -0.3484E-19 -0.8572E-19 -0.6028E-19 -0.1880E-19
    -27.203 -0.2028E-15 -0.1523E-08 -0.1535E-08 -0.1418E-08 -0.9053E-16 -0.1597E-15 -0.3882E-15 -0.2768E-15 -0.8440E-16
    -27.039 -0.2320E-12 -0.1705E-05 -0.1717E-05 -0.1611E-05 -0.1029E-12 -0.1814E-12 -0.4356E-12 -0.3149E-12 -0.9385E-13
    -26.874 -0.6411E-10 -0.4611E-03 -0.4638E-03 -0.4416E-03 -0.2825E-10 -0.4977E-10 -0.1181E-09 -0.8654E-10 -0.2520E-10
    -26.709 -0.4014E-08 -0.2823E-01 -0.2834E-01 -0.2742E-01 -0.1758E-08 -0.3096E-08 -0.7245E-08 -0.5389E-08 -0.1530E-08
    -26.544 -0.4383E-07 -0.2989E+00 -0.2993E+00 -0.2960E+00 -0.1905E-07 -0.3352E-07 -0.7703E-07 -0.5843E-07 -0.1602E-07
    -26.379  0.1237E-06  0.8862E+00  0.8914E+00  0.8517E+00  0.5440E-07  0.9583E-07  0.2268E-06  0.1668E-06  0.4836E-07
    -26.215  0.1011E-05  0.6842E+01  0.6849E+01  0.6806E+01  0.4387E-06  0.7718E-06  0.1766E-05  0.1345E-05  0.3658E-06
    -26.050  0.7313E-06  0.4813E+01  0.4804E+01  0.4870E+01  0.3157E-06  0.5551E-06  0.1248E-05  0.9680E-06  0.2545E-06
    -25.885 -0.7891E-08 -0.7531E-01 -0.7772E-01 -0.6217E-01 -0.3665E-08 -0.6491E-08 -0.1834E-07 -0.1132E-07 -0.4476E-08
    -25.720 -0.2594E-07 -0.1692E+00 -0.1687E+00 -0.1721E+00 -0.1118E-07 -0.1966E-07 -0.4396E-07 -0.3428E-07 -0.8915E-08
    -25.556 -0.1280E-08 -0.8152E-02 -0.8105E-02 -0.8408E-02 -0.5498E-09 -0.9663E-09 -0.2129E-08 -0.1684E-08 -0.4253E-09
    -25.391 -0.1261E-10 -0.7882E-04 -0.7817E-04 -0.8219E-04 -0.5408E-11 -0.9502E-11 -0.2069E-10 -0.1656E-10 -0.4078E-11
    -25.226 -0.2898E-13 -0.1779E-06 -0.1760E-06 -0.1874E-06 -0.1240E-13 -0.2180E-13 -0.4693E-13 -0.3795E-13 -0.9130E-14
    -25.061 -0.1625E-16 -0.9804E-10 -0.9673E-10 -0.1042E-09 -0.6947E-17 -0.1221E-16 -0.2601E-16 -0.2124E-16 -0.4992E-17
    -24.896 -0.2250E-20 -0.1368E-13 -0.1335E-13 -0.1425E-13 -0.9637E-21 -0.1695E-20 -0.3604E-20 -0.2935E-20 -0.6694E-21
    -24.732  0.0000E+00  0.0000E+00  0.0000E+00  0.0000E+00  0.0000E+00  0.0000E+00  0.0000E+00  0.0000E+00  0.0000E+00
    -24.567  0.0000E+00  0.0000E+00  0.0000E+00  0.0000E+00  0.0000E+00  0.0000E+00  0.0000E+00  0.0000E+00  0.0000E+00
    -24.402  0.0000E+00  0.0000E+00  0.0000E+00  0.0000E+00  0.0000E+00  0.0000E+00  0.0000E+00  0.0000E+00  0.0000E+00
    -24.237  0.0000E+00  0.0000E+00  0.0000E+00  0.0000E+00  0.0000E+00  0.0000E+00  0.0000E+00  0.0000E+00  0.0000E+00
    -24.073  0.0000E+00  0.0000E+00  0.0000E+00  0.0000E+00  0.0000E+00  0.0000E+00  0.0000E+00  0.0000E+00  0.0000E+00
    -23.908  0.0000E+00  0.0000E+00  0.0000E+00  0.0000E+00  0.0000E+00  0.0000E+00  0.0000E+00  0.0000E+00  0.0000E+00
    -23.743  0.0000E+00  0.0000E+00  0.0000E+00  0.0000E+00  0.0000E+00  0.0000E+00  0.0000E+00  0.0000E+00  0.0000E+00
    -23.578  0.0000E+00  0.0000E+00  0.0000E+00  0.0000E+00  0.0000E+00  0.0000E+00  0.0000E+00  0.0000E+00  0.0000E+00
    -23.413  0.0000E+00  0.0000E+00  0.0000E+00  0.0000E+00  0.0000E+00  0.0000E+00  0.0000E+00  0.0000E+00  0.0000E+00
    -23.249  0.0000E+00  0.0000E+00  0.0000E+00  0.0000E+00  0.0000E+00  0.0000E+00  0.0000E+00  0.0000E+00  0.0000E+00
    -23.084  0.0000E+00  0.0000E+00  0.0000E+00  0.0000E+00  0.0000E+00  0.0000E+00  0.0000E+00  0.0000E+00  0.0000E+00
    -22.919  0.0000E+00  0.0000E+00  0.0000E+00  0.0000E+00  0.0000E+00  0.0000E+00  0.0000E+00  0.0000E+00  0.0000E+00
    -22.754  0.0000E+00  0.0000E+00  0.0000E+00  0.0000E+00  0.0000E+00  0.0000E+00  0.0000E+00  0.0000E+00  0.0000E+00
    -22.589  0.0000E+00  0.0000E+00  0.0000E+00  0.0000E+00  0.0000E+00  0.0000E+00  0.0000E+00  0.0000E+00  0.0000E+00
    -22.425  0.0000E+00  0.0000E+00  0.0000E+00  0.0000E+00  0.0000E+00  0.0000E+00  0.0000E+00  0.0000E+00  0.0000E+00
    -22.260  0.0000E+00  0.0000E+00  0.0000E+00  0.0000E+00  0.0000E+00  0.0000E+00  0.0000E+00  0.0000E+00  0.0000E+00
    -22.095  0.0000E+00  0.0000E+00  0.0000E+00  0.0000E+00  0.0000E+00  0.0000E+00  0.0000E+00  0.0000E+00  0.0000E+00
    -21.930  0.0000E+00  0.0000E+00  0.0000E+00  0.0000E+00  0.0000E+00  0.0000E+00  0.0000E+00  0.0000E+00  0.0000E+00
    -21.766  0.0000E+00  0.0000E+00  0.0000E+00  0.0000E+00  0.0000E+00  0.0000E+00  0.0000E+00  0.0000E+00  0.0000E+00
    -21.601  0.0000E+00  0.0000E+00  0.0000E+00  0.0000E+00  0.0000E+00  0.0000E+00  0.0000E+00  0.0000E+00  0.0000E+00
    -21.436  0.0000E+00  0.0000E+00  0.0000E+00  0.0000E+00  0.0000E+00  0.0000E+00  0.0000E+00  0.0000E+00  0.0000E+00
    -21.271  0.0000E+00  0.0000E+00  0.0000E+00  0.0000E+00  0.0000E+00  0.0000E+00  0.0000E+00  0.0000E+00  0.0000E+00
    -21.106  0.0000E+00  0.0000E+00  0.0000E+00  0.0000E+00  0.0000E+00  0.0000E+00  0.0000E+00  0.0000E+00  0.0000E+00
    -20.942  0.0000E+00  0.0000E+00  0.0000E+00  0.0000E+00  0.0000E+00  0.0000E+00  0.0000E+00  0.0000E+00  0.0000E+00
    -20.777  0.0000E+00  0.0000E+00  0.0000E+00  0.0000E+00  0.0000E+00  0.0000E+00  0.0000E+00  0.0000E+00  0.0000E+00
    -20.612  0.0000E+00  0.0000E+00  0.0000E+00  0.0000E+00  0.0000E+00  0.0000E+00  0.0000E+00  0.0000E+00  0.0000E+00
    -20.447  0.0000E+00  0.0000E+00  0.0000E+00  0.0000E+00  0.0000E+00  0.0000E+00  0.0000E+00  0.0000E+00  0.0000E+00
    -20.283  0.0000E+00  0.0000E+00  0.0000E+00  0.0000E+00  0.0000E+00  0.0000E+00  0.0000E+00  0.0000E+00  0.0000E+00
    -20.118  0.0000E+00  0.0000E+00  0.0000E+00  0.0000E+00  0.0000E+00  0.0000E+00  0.0000E+00  0.0000E+00  0.0000E+00
    -19.953  0.0000E+00  0.0000E+00  0.0000E+00  0.0000E+00  0.0000E+00  0.0000E+00  0.0000E+00  0.0000E+00  0.0000E+00
    -19.788  0.0000E+00  0.0000E+00  0.0000E+00  0.0000E+00  0.0000E+00  0.0000E+00  0.0000E+00  0.0000E+00  0.0000E+00
    -19.623  0.0000E+00  0.0000E+00  0.0000E+00  0.0000E+00  0.0000E+00  0.0000E+00  0.0000E+00  0.0000E+00  0.0000E+00
    -19.459  0.0000E+00  0.0000E+00  0.0000E+00  0.0000E+00  0.0000E+00  0.0000E+00  0.0000E+00  0.0000E+00  0.0000E+00
    -19.294  0.0000E+00  0.0000E+00  0.0000E+00  0.0000E+00  0.0000E+00  0.0000E+00  0.0000E+00  0.0000E+00  0.0000E+00
    -19.129  0.0000E+00  0.0000E+00  0.0000E+00  0.0000E+00  0.0000E+00  0.0000E+00  0.0000E+00  0.0000E+00  0.0000E+00
    -18.964  0.0000E+00  0.0000E+00  0.0000E+00  0.0000E+00  0.0000E+00  0.0000E+00  0.0000E+00  0.0000E+00  0.0000E+00
    -18.799  0.0000E+00  0.0000E+00  0.0000E+00  0.0000E+00  0.0000E+00  0.0000E+00  0.0000E+00  0.0000E+00  0.0000E+00
    -18.635  0.0000E+00  0.0000E+00  0.0000E+00  0.0000E+00  0.0000E+00  0.0000E+00  0.0000E+00  0.0000E+00  0.0000E+00
    -18.470  0.0000E+00  0.0000E+00  0.0000E+00  0.0000E+00  0.0000E+00  0.0000E+00  0.0000E+00  0.0000E+00  0.0000E+00
    -18.305  0.0000E+00  0.0000E+00  0.0000E+00  0.0000E+00  0.0000E+00  0.0000E+00  0.0000E+00  0.0000E+00  0.0000E+00
    -18.140  0.0000E+00  0.0000E+00  0.0000E+00  0.0000E+00  0.0000E+00  0.0000E+00  0.0000E+00  0.0000E+00  0.0000E+00
    -17.976  0.0000E+00  0.0000E+00  0.0000E+00  0.0000E+00  0.0000E+00  0.0000E+00  0.0000E+00  0.0000E+00  0.0000E+00
    -17.811  0.0000E+00  0.0000E+00  0.0000E+00  0.0000E+00  0.0000E+00  0.0000E+00  0.0000E+00  0.0000E+00  0.0000E+00
    -17.646  0.0000E+00  0.0000E+00  0.0000E+00  0.0000E+00  0.0000E+00  0.0000E+00  0.0000E+00  0.0000E+00  0.0000E+00
    -17.481  0.0000E+00  0.0000E+00  0.0000E+00  0.0000E+00  0.0000E+00  0.0000E+00  0.0000E+00  0.0000E+00  0.0000E+00
    -17.316  0.0000E+00  0.0000E+00  0.0000E+00  0.0000E+00  0.0000E+00  0.0000E+00  0.0000E+00  0.0000E+00  0.0000E+00
    -17.152  0.0000E+00  0.0000E+00  0.0000E+00  0.0000E+00  0.0000E+00  0.0000E+00  0.0000E+00  0.0000E+00  0.0000E+00
    -16.987  0.0000E+00  0.0000E+00  0.0000E+00  0.0000E+00  0.0000E+00  0.0000E+00  0.0000E+00  0.0000E+00  0.0000E+00
    -16.822  0.0000E+00  0.0000E+00  0.0000E+00  0.0000E+00  0.0000E+00  0.0000E+00  0.0000E+00  0.0000E+00  0.0000E+00
    -16.657  0.0000E+00  0.0000E+00  0.0000E+00  0.0000E+00  0.0000E+00  0.0000E+00  0.0000E+00  0.0000E+00  0.0000E+00
    -16.493  0.0000E+00  0.0000E+00  0.0000E+00  0.0000E+00  0.0000E+00  0.0000E+00  0.0000E+00  0.0000E+00  0.0000E+00
    -16.328  0.0000E+00  0.0000E+00  0.0000E+00  0.0000E+00  0.0000E+00  0.0000E+00  0.0000E+00  0.0000E+00  0.0000E+00
    -16.163  0.0000E+00  0.0000E+00  0.0000E+00  0.0000E+00  0.0000E+00  0.0000E+00  0.0000E+00  0.0000E+00  0.0000E+00
    -15.998  0.0000E+00  0.0000E+00  0.0000E+00  0.0000E+00  0.0000E+00  0.0000E+00  0.0000E+00  0.0000E+00  0.0000E+00
    -15.833  0.0000E+00  0.0000E+00  0.0000E+00  0.0000E+00  0.0000E+00  0.0000E+00  0.0000E+00  0.0000E+00  0.0000E+00
    -15.669  0.0000E+00  0.0000E+00  0.0000E+00  0.0000E+00  0.0000E+00  0.0000E+00  0.0000E+00  0.0000E+00  0.0000E+00
    -15.504  0.0000E+00  0.0000E+00  0.0000E+00  0.0000E+00  0.0000E+00  0.0000E+00  0.0000E+00  0.0000E+00  0.0000E+00
    -15.339  0.0000E+00  0.0000E+00  0.0000E+00  0.0000E+00  0.0000E+00  0.0000E+00  0.0000E+00  0.0000E+00  0.0000E+00
    -15.174  0.0000E+00  0.0000E+00  0.0000E+00  0.0000E+00  0.0000E+00  0.0000E+00  0.0000E+00  0.0000E+00  0.0000E+00
    -15.009  0.0000E+00  0.0000E+00  0.0000E+00  0.0000E+00  0.0000E+00  0.0000E+00  0.0000E+00  0.0000E+00  0.0000E+00
    -14.845  0.0000E+00  0.0000E+00  0.0000E+00  0.0000E+00  0.0000E+00  0.0000E+00  0.0000E+00  0.0000E+00  0.0000E+00
    -14.680  0.0000E+00  0.0000E+00  0.0000E+00  0.0000E+00  0.0000E+00  0.0000E+00  0.0000E+00  0.0000E+00  0.0000E+00
    -14.515  0.0000E+00  0.0000E+00  0.0000E+00  0.0000E+00  0.0000E+00  0.0000E+00  0.0000E+00  0.0000E+00  0.0000E+00
    -14.350  0.0000E+00  0.0000E+00  0.0000E+00  0.0000E+00  0.0000E+00  0.0000E+00  0.0000E+00  0.0000E+00  0.0000E+00
    -14.186  0.0000E+00  0.0000E+00  0.0000E+00  0.0000E+00  0.0000E+00  0.0000E+00  0.0000E+00  0.0000E+00  0.0000E+00
    -14.021  0.0000E+00  0.0000E+00  0.0000E+00  0.0000E+00  0.0000E+00  0.0000E+00  0.0000E+00  0.0000E+00  0.0000E+00
    -13.856  0.0000E+00  0.0000E+00  0.0000E+00  0.0000E+00  0.0000E+00  0.0000E+00  0.0000E+00  0.0000E+00  0.0000E+00
    -13.691  0.0000E+00  0.0000E+00  0.0000E+00  0.0000E+00  0.0000E+00  0.0000E+00  0.0000E+00  0.0000E+00  0.0000E+00
    -13.526  0.0000E+00  0.0000E+00  0.0000E+00  0.0000E+00  0.0000E+00  0.0000E+00  0.0000E+00  0.0000E+00  0.0000E+00
    -13.362  0.0000E+00  0.0000E+00  0.0000E+00  0.0000E+00  0.0000E+00  0.0000E+00  0.0000E+00  0.0000E+00  0.0000E+00
    -13.197  0.0000E+00  0.0000E+00  0.0000E+00  0.0000E+00  0.0000E+00  0.0000E+00  0.0000E+00  0.0000E+00  0.0000E+00
    -13.032  0.0000E+00  0.0000E+00  0.0000E+00  0.0000E+00  0.0000E+00  0.0000E+00  0.0000E+00  0.0000E+00  0.0000E+00