   64   64  300    1
  0.2727090E+02  0.1204000E-08  0.1204000E-08  0.1204000E-08  0.2500000E-15
   1.0000000000000000E-004
  CAR 
 unknown system                          
    704      8    422
 
  0.1262379E-14  0.1262379E-14  0.1262379E-14  0.1250000E+00
      1        -36.491076   1.000000
      2        -36.376372   1.000000
      3        -36.374592   1.000000
      4        -36.343585   1.000000
      5        -36.342176   1.000000
      6        -36.261273   1.000000
      7        -36.255799   1.000000
      8        -36.250603   1.000000
      9        -36.238262   1.000000
     10        -31.770519   1.000000
     11        -31.757170   1.000000
     12        -31.754535   1.000000
     13        -31.743393   1.000000
     14        -31.736562   1.000000
     15        -31.726259   1.000000
     16        -31.650610   1.000000
     17        -31.644546   1.000000
     18        -31.637878   1.000000
     19        -31.634772   1.000000
     20        -31.633240   1.000000
     21        -31.630969   1.000000
     22        -31.629976   1.000000
     23        -31.629654   1.000000
     24        -31.626438   1.000000
     25        -31.623683   1.000000
     26        -31.622328   1.000000
     27        -31.618210   1.000000
     28        -31.617715   1.000000
     29        -31.615112   1.000000
     30        -31.612598   1.000000
     31        -31.610191   1.000000
     32        -31.609800   1.000000
     33        -31.606172   1.000000
     34        -31.603930   1.000000
     35        -31.599323   1.000000
     36        -31.592498   1.000000
     37        -31.583277   1.000000
     38        -31.580442   1.000000
     39        -31.568926   1.000000
     40        -31.567453   1.000000
     41        -31.559354   1.000000
     42        -31.554326   1.000000
     43        -31.551794   1.000000
     44        -31.548767   1.000000
     45        -31.538411   1.000000
     46        -31.531685   1.000000
     47        -31.512930   1.000000
     48        -31.499691   1.000000
     49        -31.489086   1.000000
     50        -31.488057   1.000000
     51        -31.469004   1.000000
     52        -31.446016   1.000000
     53        -31.431632   1.000000
     54        -31.405191   1.000000
     55        -31.367952   1.000000
     56        -31.358169   1.000000
     57        -31.355171   1.000000
     58        -31.348952   1.000000
     59        -31.346282   1.000000
     60        -31.345504   1.000000
     61        -31.341320   1.000000
     62        -31.340247   1.000000
     63        -31.338352   1.000000
     64        -31.336342   1.000000
     65        -31.334446   1.000000
     66        -31.332022   1.000000
     67        -31.329773   1.000000
     68        -31.327532   1.000000
     69        -31.326994   1.000000
     70        -31.326315   1.000000
     71        -31.323417   1.000000
     72        -31.322010   1.000000
     73        -31.317625   1.000000
     74        -31.315111   1.000000
     75        -31.313325   1.000000
     76        -31.310192   1.000000
     77        -31.306697   1.000000
     78        -31.305694   1.000000
     79        -31.297855   1.000000
     80        -31.293017   1.000000
     81        -31.286965   1.000000
     82        -31.281529   1.000000
     83        -31.277951   1.000000
     84        -31.276432   1.000000
     85        -31.269335   1.000000
     86        -31.268697   1.000000
     87        -31.263622   1.000000
     88        -31.260147   1.000000
     89        -31.258406   1.000000
     90        -31.251793   1.000000
     91        -31.250389   1.000000
     92        -31.248386   1.000000
     93        -31.245954   1.000000
     94        -31.243311   1.000000
     95        -31.238672   1.000000
     96        -31.237989   1.000000
     97        -31.235164   1.000000
     98        -31.234601   1.000000
     99        -31.231566   1.000000
    100        -31.227667   1.000000
    101        -31.225073   1.000000
    102        -31.220212   1.000000
    103        -31.215707   1.000000
    104        -31.210040   1.000000
    105        -31.202923   1.000000
    106        -31.202142   1.000000
    107        -31.201026   1.000000
    108        -31.197347   1.000000
    109        -31.195077   1.000000
    110        -31.191136   1.000000
    111        -31.187650   1.000000
    112        -31.185777   1.000000
    113        -31.183365   1.000000
    114        -31.180023   1.000000
    115        -31.177930   1.000000
    116        -31.175510   1.000000
    117        -31.171795   1.000000
    118        -31.169813   1.000000
    119        -31.167612   1.000000
    120        -31.165890   1.000000
    121        -31.163658   1.000000
    122        -31.161801   1.000000
    123        -31.160598   1.000000
    124        -31.158782   1.000000
    125        -31.157246   1.000000
    126        -31.153088   1.000000
    127        -31.126305   1.000000
    128        -31.122355   1.000000
    129        -31.118516   1.000000
    130        -31.108370   1.000000
    131        -31.090010   1.000000
    132        -31.086369   1.000000
    133        -31.072642   1.000000
    134        -31.061588   1.000000
    135        -31.044581   1.000000
    136        -31.035028   1.000000
    137        -31.027381   1.000000
    138        -31.012526   1.000000
    139        -31.010678   1.000000
    140        -31.009957   1.000000
    141        -31.008011   1.000000
    142        -30.999964   1.000000
    143        -30.993468   1.000000
    144        -30.993399   1.000000
    145        -30.992488   1.000000
    146        -30.988130   1.000000
    147        -30.982947   1.000000
    148        -30.977956   1.000000
    149        -30.974699   1.000000
    150        -30.968565   1.000000
    151        -30.963384   1.000000
    152        -30.959668   1.000000
    153        -30.955843   1.000000
    154        -30.949354   1.000000
    155        -30.947534   1.000000
    156        -30.941279   1.000000
    157        -30.934079   1.000000
    158        -30.931345   1.000000
    159        -30.930647   1.000000
    160        -30.928800   1.000000
    161        -30.926098   1.000000
    162        -30.918199   1.000000
    163        -30.913504   1.000000
    164        -30.907542   1.000000
    165        -30.902923   1.000000
    166        -30.896741   1.000000
    167        -30.890439   1.000000
    168        -30.882134   1.000000
    169        -30.881106   1.000000
    170        -30.874162   1.000000
    171        -30.867062   1.000000
    172        -30.865636   1.000000
    173        -30.864075   1.000000
    174        -30.863300   1.000000
    175        -30.862585   1.000000
    176        -30.858290   1.000000
    177        -30.856981   1.000000
    178        -30.853382   1.000000
    179        -30.851177   1.000000
    180        -30.849508   1.000000
    181        -30.843737   1.000000
    182        -30.843062   1.000000
    183        -30.839149   1.000000
    184        -26.247101   1.000000
    185        -26.244189   1.000000
    186        -26.243039   1.000000
    187        -26.241885   1.000000
    188        -26.240264   1.000000
    189        -26.239638   1.000000
    190        -26.237622   1.000000
    191        -26.233223   1.000000
    192        -26.230883   1.000000
    193         -0.488436   1.000000
    194          1.530673   1.000000
    195          1.609005   1.000000
    196          1.615906   1.000000
    197          1.648167   1.000000
    198          1.660919   1.000000
    199          1.675312   1.000000
    200          1.676308   1.000000
    201          1.687910   1.000000
    202          1.688670   1.000000
    203          1.733912   1.000000
    204          1.764411   1.000000
    205          1.772175   1.000000
    206          2.896172   1.000000
    207          2.909552   1.000000
    208          2.913056   1.000000
    209          2.924515   1.000000
    210          2.926403   1.000000
    211          2.937436   1.000000
    212          3.087000   1.000000
    213          3.088352   1.000000
    214          3.189774   1.000000
    215          3.199080   1.000000
    216          3.201155   1.000000
    217          3.216115   1.000000
    218          3.218058   1.000000
    219          3.232161   1.000000
    220          3.765135   1.000000
    221          3.774992   1.000000
    222          3.793776   1.000000
    223          3.798962   1.000000
    224          3.815397   1.000000
    225          3.821429   1.000000
    226          3.835379   1.000000
    227          3.840049   1.000000
    228          3.855153   1.000000
    229          3.857086   1.000000
    230          3.868963   1.000000
    231          3.871213   1.000000
    232          3.878634   1.000000
    233          3.890232   1.000000
    234          3.897147   1.000000
    235          3.899350   1.000000
    236          3.908061   1.000000
    237          3.918988   1.000000
    238          3.923282   1.000000
    239          3.926912   1.000000
    240          3.932385   1.000000
    241          3.940188   1.000000
    242          3.942833   1.000000
    243          3.949794   1.000000
    244          3.950248   1.000000
    245          3.952601   1.000000
    246          3.958250   1.000000
    247          3.967884   1.000000
    248          3.973969   1.000000
    249          3.977829   1.000000
    250          3.982415   1.000000
    251          3.991570   1.000000
    252          4.008059   1.000000
    253          4.027348   1.000000
    254          4.040600   1.000000
    255          4.047177   1.000000
    256          4.426817   1.000000
    257          4.441722   1.000000
    258          4.446528   1.000000
    259          4.473782   1.000000
    260          4.492960   1.000000
    261          4.499159   1.000000
    262          4.529902   1.000000
    263          4.554298   1.000000
    264          4.565326   1.000000
    265          4.578143   1.000000
    266          4.594164   1.000000
    267          4.616322   1.000000
    268          4.768298   1.000000
    269          4.792901   1.000000
    270          4.802417   1.000000
    271          4.816988   1.000000
    272          4.849257   1.000000
    273          4.861291   1.000000
    274          4.864168   1.000000
    275          4.872331   1.000000
    276          4.894649   1.000000
    277          4.909867   1.000000
    278          4.912849   1.000000
    279          4.924642   1.000000
    280          4.928935   1.000000
    281          4.935847   1.000000
    282          4.936666   1.000000
    283          4.955550   1.000000
    284          4.956989   1.000000
    285          4.961026   1.000000
    286          4.965013   1.000000
    287          4.971508   1.000000
    288          4.985240   1.000000
    289          4.988796   1.000000
    290          4.990963   1.000000
    291          5.002806   1.000000
    292          5.012552   1.000000
    293          5.025051   1.000000
    294          5.033343   1.000000
    295          5.043223   1.000000
    296          5.046399   1.000000
    297          5.055991   1.000000
    298          5.068886   1.000000
    299          5.075816   1.000000
    300          5.087089   1.000000
    301          5.099887   1.000000
    302          5.105272   1.000000
    303          5.117021   1.000000
    304          5.482421   1.000015
    305          5.503098   1.000029
    306          5.512909   1.000039
    307          5.528146   1.000061
    308          5.532511   1.000069
    309          5.535003   1.000074
    310          5.539719   1.000085
    311          5.557380   1.000138
    312          5.561691   1.000155
    313          5.566503   1.000177
    314          5.585030   1.000287
    315          5.595600   1.000375
    316          5.603425   1.000455
    317          5.613791   1.000586
    318          5.617099   1.000634
    319          5.618280   1.000652
    320          5.624454   1.000754
    321          5.631730   1.000893
    322          5.638119   1.001033
    323          5.645224   1.001212
    324          5.647584   1.001277
    325          5.656988   1.001567
    326          5.674289   1.002254
    327          5.676155   1.002342
    328          5.686950   1.002909
    329          5.689674   1.003068
    330          5.698238   1.003620
    331          5.701061   1.003819
    332          5.705215   1.004129
    333          5.717850   1.005197
    334          5.721699   1.005563
    335          5.730793   1.006510
    336          5.737800   1.007320
    337          5.744273   1.008135
    338          5.752614   1.009281
    339          5.757567   1.010014
    340          5.763345   1.010919
    341          5.772195   1.012408
    342          5.774187   1.012761
    343          5.789466   1.015665
    344          5.798477   1.017531
    345          5.801985   1.018284
    346          6.019229   0.928714
    347          6.032537   0.897953
    348          6.069098   0.790951
    349          6.094340   0.700041
    350          6.095219   0.696673
    351          6.118537   0.603462
    352          6.131214   0.550595
    353          6.135084   0.534288
    354          6.144950   0.492576
    355          6.153445   0.456691
    356          6.172693   0.376678
    357          6.220204   0.199384
    358          6.465476  -0.022539
    359          6.486062  -0.017927
    360          6.591804  -0.003376
    361          6.772328  -0.000040
    362          6.793474  -0.000021
    363          6.830516  -0.000007
    364          6.844254  -0.000004
    365          6.852566  -0.000003
    366          6.882869  -0.000001
    367          6.903044  -0.000001
    368          6.906671  -0.000000
    369          6.916787  -0.000000
    370          6.925217  -0.000000
    371          6.934181  -0.000000
    372          6.946071  -0.000000
    373          6.970187  -0.000000
    374          6.970781  -0.000000
    375          6.986806  -0.000000
    376          6.987176  -0.000000
    377          6.999716  -0.000000
    378          7.007462  -0.000000
    379          7.039480  -0.000000
    380          7.082215  -0.000000
    381          7.098794  -0.000000
    382          7.148791  -0.000000
    383          7.160562  -0.000000
    384          7.187884  -0.000000
    385          7.622560  -0.000000
    386          7.636128  -0.000000
    387          7.645848  -0.000000
    388          7.660807  -0.000000
    389          7.668539  -0.000000
    390          7.678843  -0.000000
    391          7.682607  -0.000000
    392          7.707749  -0.000000
    393          7.709918  -0.000000
    394          7.727852  -0.000000
    395          7.740542  -0.000000
    396          7.747032  -0.000000
    397          7.761850  -0.000000
    398          7.789328  -0.000000
    399          7.796353  -0.000000
    400          7.849242  -0.000000
    401          7.884509  -0.000000
    402          7.895136  -0.000000
    403          7.899242  -0.000000
    404          7.946884  -0.000000
    405          7.983071  -0.000000
    406          7.996050  -0.000000
    407          8.022858  -0.000000
    408          8.031621  -0.000000
    409          8.062755  -0.000000
    410          8.068136  -0.000000
    411          8.077705  -0.000000
    412          8.082277  -0.000000
    413          8.088222  -0.000000
    414          8.109412  -0.000000
    415          8.111069  -0.000000
    416          8.127843  -0.000000
    417          8.141041  -0.000000
    418          8.161932  -0.000000
    419          8.176048  -0.000000
    420          8.177511  -0.000000
    421          8.183909  -0.000000
    422          8.205236  -0.000000
 
  0.5000000E+00  0.1262379E-14  0.1262379E-14  0.1250000E+00
      1        -36.490979   1.000000
      2        -36.376383   1.000000
      3        -36.374612   1.000000
      4        -36.343590   1.000000
      5        -36.342183   1.000000
      6        -36.261481   1.000000
      7        -36.255795   1.000000
      8        -36.250546   1.000000
      9        -36.238270   1.000000
     10        -31.733050   1.000000
     11        -31.720714   1.000000
     12        -31.709322   1.000000
     13        -31.707426   1.000000
     14        -31.693901   1.000000
     15        -31.683514   1.000000
     16        -31.678194   1.000000
     17        -31.676169   1.000000
     18        -31.659007   1.000000
     19        -31.657934   1.000000
     20        -31.647995   1.000000
     21        -31.645238   1.000000
     22        -31.643524   1.000000
     23        -31.638079   1.000000
     24        -31.631355   1.000000
     25        -31.624878   1.000000
     26        -31.621548   1.000000
     27        -31.616651   1.000000
     28        -31.614466   1.000000
     29        -31.604330   1.000000
     30        -31.599738   1.000000
     31        -31.594033   1.000000
     32        -31.583003   1.000000
     33        -31.581484   1.000000
     34        -31.573857   1.000000
     35        -31.566215   1.000000
     36        -31.557581   1.000000
     37        -31.555309   1.000000
     38        -31.555012   1.000000
     39        -31.548505   1.000000
     40        -31.542748   1.000000
     41        -31.540124   1.000000
     42        -31.535447   1.000000
     43        -31.533296   1.000000
     44        -31.520307   1.000000
     45        -31.518092   1.000000
     46        -31.516088   1.000000
     47        -31.514468   1.000000
     48        -31.511134   1.000000
     49        -31.508554   1.000000
     50        -31.505158   1.000000
     51        -31.495787   1.000000
     52        -31.493238   1.000000
     53        -31.489528   1.000000
     54        -31.486261   1.000000
     55        -31.473668   1.000000
     56        -31.471539   1.000000
     57        -31.467506   1.000000
     58        -31.453948   1.000000
     59        -31.443605   1.000000
     60        -31.431339   1.000000
     61        -31.424662   1.000000
     62        -31.408347   1.000000
     63        -31.401814   1.000000
     64        -31.399823   1.000000
     65        -31.391430   1.000000
     66        -31.375182   1.000000
     67        -31.367042   1.000000
     68        -31.360911   1.000000
     69        -31.350838   1.000000
     70        -31.344755   1.000000
     71        -31.333819   1.000000
     72        -31.328356   1.000000
     73        -31.324991   1.000000
     74        -31.321511   1.000000
     75        -31.314633   1.000000
     76        -31.314056   1.000000
     77        -31.312650   1.000000
     78        -31.306985   1.000000
     79        -31.302242   1.000000
     80        -31.298231   1.000000
     81        -31.293097   1.000000
     82        -31.289119   1.000000
     83        -31.287569   1.000000
     84        -31.281059   1.000000
     85        -31.278528   1.000000
     86        -31.269426   1.000000
     87        -31.261928   1.000000
     88        -31.256949   1.000000
     89        -31.253652   1.000000
     90        -31.247562   1.000000
     91        -31.241971   1.000000
     92        -31.237971   1.000000
     93        -31.227841   1.000000
     94        -31.226153   1.000000
     95        -31.225046   1.000000
     96        -31.221711   1.000000
     97        -31.212475   1.000000
     98        -31.211593   1.000000
     99        -31.209940   1.000000
    100        -31.203717   1.000000
    101        -31.200871   1.000000
    102        -31.195066   1.000000
    103        -31.193320   1.000000
    104        -31.191368   1.000000
    105        -31.189527   1.000000
    106        -31.187110   1.000000
    107        -31.181773   1.000000
    108        -31.176319   1.000000
    109        -31.173106   1.000000
    110        -31.165818   1.000000
    111        -31.159978   1.000000
    112        -31.151872   1.000000
    113        -31.145739   1.000000
    114        -31.142700   1.000000
    115        -31.135745   1.000000
    116        -31.127408   1.000000
    117        -31.119589   1.000000
    118        -31.113883   1.000000
    119        -31.108040   1.000000
    120        -31.104758   1.000000
    121        -31.103985   1.000000
    122        -31.099998   1.000000
    123        -31.090749   1.000000
    124        -31.089752   1.000000
    125        -31.086659   1.000000
    126        -31.079317   1.000000
    127        -31.075508   1.000000
    128        -31.070555   1.000000
    129        -31.067968   1.000000
    130        -31.066495   1.000000
    131        -31.063472   1.000000
    132        -31.057328   1.000000
    133        -31.052154   1.000000
    134        -31.048445   1.000000
    135        -31.039936   1.000000
    136        -31.036030   1.000000
    137        -31.033400   1.000000
    138        -31.029125   1.000000
    139        -31.023974   1.000000
    140        -31.023599   1.000000
    141        -31.019468   1.000000
    142        -31.014151   1.000000
    143        -31.008630   1.000000
    144        -31.006187   1.000000
    145        -31.003134   1.000000
    146        -30.999363   1.000000
    147        -30.991938   1.000000
    148        -30.988450   1.000000
    149        -30.979742   1.000000
    150        -30.976492   1.000000
    151        -30.970480   1.000000
    152        -30.969292   1.000000
    153        -30.966255   1.000000
    154        -30.952567   1.000000
    155        -30.949579   1.000000
    156        -30.944741   1.000000
    157        -30.943506   1.000000
    158        -30.938338   1.000000
    159        -30.935086   1.000000
    160        -30.930702   1.000000
    161        -30.930039   1.000000
    162        -30.926040   1.000000
    163        -30.922083   1.000000
    164        -30.919472   1.000000
    165        -30.913513   1.000000
    166        -30.911857   1.000000
    167        -30.906182   1.000000
    168        -30.898445   1.000000
    169        -30.897897   1.000000
    170        -30.896118   1.000000
    171        -30.892215   1.000000
    172        -30.890945   1.000000
    173        -30.885431   1.000000
    174        -30.885096   1.000000
    175        -30.882937   1.000000
    176        -30.879621   1.000000
    177        -30.877420   1.000000
    178        -30.870695   1.000000
    179        -30.868440   1.000000
    180        -30.864520   1.000000
    181        -30.856490   1.000000
    182        -30.854688   1.000000
    183        -30.840576   1.000000
    184        -26.246624   1.000000
    185        -26.244988   1.000000
    186        -26.242601   1.000000
    187        -26.242359   1.000000
    188        -26.240944   1.000000
    189        -26.239542   1.000000
    190        -26.237030   1.000000
    191        -26.233222   1.000000
    192        -26.230865   1.000000
    193          0.123365   1.000000
    194          0.127960   1.000000
    195          1.191370   1.000000
    196          1.219942   1.000000
    197          1.270154   1.000000
    198          1.312599   1.000000
    199          2.153851   1.000000
    200          2.159904   1.000000
    201          2.172860   1.000000
    202          2.177443   1.000000
    203          2.706783   1.000000
    204          2.718258   1.000000
    205          2.757888   1.000000
    206          2.769380   1.000000
    207          2.783877   1.000000
    208          2.794077   1.000000
    209          2.808363   1.000000
    210          2.828245   1.000000
    211          2.841164   1.000000
    212          2.866186   1.000000
    213          3.260089   1.000000
    214          3.269966   1.000000
    215          3.274350   1.000000
    216          3.281500   1.000000
    217          3.283125   1.000000
    218          3.295602   1.000000
    219          3.299406   1.000000
    220          3.313354   1.000000
    221          3.320409   1.000000
    222          3.329047   1.000000
    223          3.390245   1.000000
    224          3.395569   1.000000
    225          3.423945   1.000000
    226          3.440539   1.000000
    227          3.443563   1.000000
    228          3.451009   1.000000
    229          3.457498   1.000000
    230          3.461874   1.000000
    231          3.818647   1.000000
    232          3.832201   1.000000
    233          3.854996   1.000000
    234          3.870750   1.000000
    235          3.875876   1.000000
    236          3.883755   1.000000
    237          3.887986   1.000000
    238          3.913586   1.000000
    239          3.927276   1.000000
    240          3.928998   1.000000
    241          3.932179   1.000000
    242          3.952350   1.000000
    243          3.957947   1.000000
    244          3.961831   1.000000
    245          3.970265   1.000000
    246          3.980961   1.000000
    247          3.986520   1.000000
    248          3.995793   1.000000
    249          4.000912   1.000000
    250          4.015807   1.000000
    251          4.020348   1.000000
    252          4.064828   1.000000
    253          4.077980   1.000000
    254          4.095463   1.000000
    255          4.113493   1.000000
    256          4.135645   1.000000
    257          4.194940   1.000000
    258          4.208434   1.000000
    259          4.460240   1.000000
    260          4.467706   1.000000
    261          4.485636   1.000000
    262          4.494974   1.000000
    263          4.590777   1.000000
    264          4.594202   1.000000
    265          4.663642   1.000000
    266          4.673351   1.000000
    267          4.851841   1.000000
    268          4.878932   1.000000
    269          4.892574   1.000000
    270          4.900295   1.000000
    271          4.913595   1.000000
    272          4.930121   1.000000
    273          4.938865   1.000000
    274          4.965488   1.000000
    275          4.972160   1.000000
    276          4.988759   1.000000
    277          4.997246   1.000000
    278          5.008183   1.000000
    279          5.010947   1.000000
    280          5.016912   1.000000
    281          5.020855   1.000000
    282          5.028938   1.000000
    283          5.044271   1.000000
    284          5.047843   1.000000
    285          5.053387   1.000000
    286          5.055944   1.000000
    287          5.070725   1.000000
    288          5.083540   1.000000
    289          5.095461   1.000000
    290          5.106400   1.000000
    291          5.128588   1.000000
    292          5.136093   1.000000
    293          5.146073   1.000000
    294          5.162635   1.000000
    295          5.168766   1.000000
    296          5.191546   1.000000
    297          5.225659   1.000000
    298          5.251940   1.000000
    299          5.277801   1.000000
    300          5.304353   1.000000
    301          5.313881   1.000000
    302          5.324011   1.000000
    303          5.327241   1.000000
    304          5.336257   1.000000
    305          5.360071   1.000000
    306          5.361840   1.000000
    307          5.375958   1.000000
    308          5.387688   1.000001
    309          5.396039   1.000001
    310          5.400985   1.000001
    311          5.413104   1.000002
    312          5.424913   1.000002
    313          5.451701   1.000006
    314          5.467353   1.000010
    315          5.493763   1.000022
    316          5.510543   1.000036
    317          5.545595   1.000100
    318          5.560811   1.000152
    319          5.572356   1.000206
    320          5.593731   1.000358
    321          5.650013   1.001347
    322          5.673595   1.002223
    323          5.694328   1.003359
    324          5.718327   1.005241
    325          5.728349   1.006244
    326          5.742585   1.007916
    327          5.750600   1.008994
    328          5.765131   1.011209
    329          5.789689   1.015710
    330          5.805052   1.018954
    331          5.820863   1.022527
    332          5.832342   1.025182
    333          5.855434   1.030271
    334          5.867961   1.032607
    335          5.877230   1.033989
    336          5.891140   1.035273
    337          5.900344   1.035441
    338          5.909615   1.034920
    339          5.922067   1.032902
    340          5.942567   1.025450
    341          5.967583   1.007411
    342          6.003409   0.959499
    343          6.010730   0.946025
    344          6.020645   0.925654
    345          6.044298   0.867055
    346          6.068578   0.792691
    347          6.085394   0.733619
    348          6.101974   0.670380
    349          6.120115   0.596944
    350          6.126631   0.569823
    351          6.154030   0.454229
    352          6.184507   0.329262
    353          6.188372   0.314142
    354          6.200283   0.269004
    355          6.210366   0.232768
    356          6.225401   0.182600
    357          6.237899   0.144790
    358          6.256804   0.094841
    359          6.260013   0.087252
    360          6.291517   0.026435
    361          6.332433  -0.018604
    362          6.356313  -0.030663
    363          6.429660  -0.030532
    364          6.453510  -0.025306
    365          6.504406  -0.014200
    366          6.521568  -0.011159
    367          6.526647  -0.010348
    368          6.546079  -0.007629
    369          6.570677  -0.005002
    370          6.586826  -0.003713
    371          6.591157  -0.003418
    372          6.598682  -0.002952
    373          6.616297  -0.002067
    374          6.653675  -0.000913
    375          6.958045  -0.000000
    376          6.971390  -0.000000
    377          6.990746  -0.000000
    378          6.999486  -0.000000
    379          7.023587  -0.000000
    380          7.036180  -0.000000