       N       E                     dE             d eps       ncg     rms          rms(c)
DAV:   1     0.755508317925E+04    0.75551E+04   -0.32916E+05  8280   0.128E+03
DAV:   2     0.111161823484E+03   -0.74439E+04   -0.73445E+04  6752   0.563E+02
DAV:   3    -0.416004909201E+03   -0.52717E+03   -0.49678E+03 10424   0.113E+02
DAV:   4    -0.501616148945E+03   -0.85611E+02   -0.79484E+02  9792   0.368E+01
DAV:   5    -0.508438351651E+03   -0.68222E+01   -0.64941E+01  9600   0.101E+01    0.769E+01
RMM:   6    -0.402292364518E+03    0.10615E+03   -0.68767E+02  6753   0.590E+01    0.437E+01
RMM:   7    -0.541662396558E+03   -0.13937E+03   -0.52241E+02  9152   0.261E+01    0.942E+01
RMM:   8    -0.437659412062E+03    0.10400E+03   -0.14742E+02  7823   0.196E+01    0.523E+01
RMM:   9    -0.414224874500E+03    0.23435E+02   -0.47431E+01  8082   0.105E+01    0.219E+01
RMM:  10    -0.418626702635E+03   -0.44018E+01   -0.44333E+01  9369   0.703E+00    0.311E+01
RMM:  11    -0.415606523068E+03    0.30202E+01   -0.14387E+01  8021   0.634E+00    0.204E+01
RMM:  12    -0.414682964309E+03    0.92356E+00   -0.96380E+00  8659   0.452E+00    0.156E+01
RMM:  13    -0.414803255416E+03   -0.12029E+00   -0.76947E+00  9075   0.362E+00    0.147E+01
RMM:  14    -0.415445206223E+03   -0.64195E+00   -0.58973E+00  9376   0.307E+00    0.160E+01
RMM:  15    -0.414495547316E+03    0.94966E+00   -0.26406E+00  8959   0.234E+00    0.109E+01
RMM:  16    -0.414266133992E+03    0.22941E+00   -0.16084E+00  9359   0.160E+00    0.935E+00
RMM:  17    -0.413932115760E+03    0.33402E+00   -0.12316E+00  9496   0.148E+00    0.583E+00
RMM:  18    -0.413807709561E+03    0.12441E+00   -0.66252E-01  9478   0.962E-01    0.260E+00
RMM:  19    -0.413906163065E+03   -0.98454E-01   -0.64641E-01  9728   0.867E-01    0.446E+00
RMM:  20    -0.413866726601E+03    0.39436E-01   -0.31290E-01  9644   0.628E-01    0.306E+00
RMM:  21    -0.413829666740E+03    0.37060E-01   -0.12244E-01  9415   0.384E-01    0.105E+00
RMM:  22    -0.413836595771E+03   -0.69290E-02   -0.96329E-02  9682   0.276E-01    0.125E+00
RMM:  23    -0.413831747605E+03    0.48482E-02   -0.44136E-02  9347   0.227E-01    0.757E-01
RMM:  24    -0.413830854904E+03    0.89270E-03   -0.33133E-02  9554   0.159E-01    0.533E-01
RMM:  25    -0.413832260731E+03   -0.14058E-02   -0.21721E-02  9684   0.132E-01    0.563E-01
RMM:  26    -0.413832412366E+03   -0.15163E-03   -0.15245E-02  9489   0.140E-01    0.518E-01
RMM:  27    -0.413831772856E+03    0.63951E-03   -0.94101E-03  9462   0.888E-02    0.241E-01
RMM:  28    -0.413832427676E+03   -0.65482E-03   -0.66637E-03  9707   0.690E-02    0.307E-01
RMM:  29    -0.413832206247E+03    0.22143E-03   -0.37928E-03  9380   0.564E-02    0.149E-01
RMM:  30    -0.413832358998E+03   -0.15275E-03   -0.26075E-03  9681   0.336E-02    0.105E-01
RMM:  31    -0.413832461400E+03   -0.10240E-03   -0.14440E-03  9077   0.235E-02    0.921E-02
RMM:  32    -0.413832520384E+03   -0.58984E-04   -0.99424E-04  8974   0.204E-02    0.686E-02
RMM:  33    -0.413832552075E+03   -0.31691E-04   -0.56062E-04  8420   0.169E-02    0.507E-02
RMM:  34    -0.413832580003E+03   -0.27928E-04   -0.33532E-04  8223   0.125E-02    0.488E-02
RMM:  35    -0.413832586437E+03   -0.64346E-05   -0.14445E-04  8228   0.129E-02    0.300E-02
RMM:  36    -0.413832588377E+03   -0.19399E-05   -0.54239E-05  8055   0.870E-03    0.221E-02
RMM:  37    -0.413832586043E+03    0.23336E-05    0.53530E-05  8019   0.715E-03    0.322E-02
RMM:  38    -0.413832572879E+03    0.13165E-04    0.84410E-05  7384   0.617E-03    0.158E-02
RMM:  39    -0.413832561131E+03    0.11748E-04    0.11071E-04  6712   0.426E-03    0.124E-02
RMM:  40    -0.413832547404E+03    0.13726E-04    0.13295E-04  6363   0.374E-03    0.720E-03
RMM:  41    -0.413832533634E+03    0.13770E-04    0.13338E-04  6033   0.289E-03    0.671E-03
RMM:  42    -0.413832520234E+03    0.13400E-04    0.13219E-04  5753   0.242E-03    0.348E-03
RMM:  43    -0.413832506864E+03    0.13370E-04    0.13090E-04  4256   0.190E-03    0.251E-03
RMM:  44    -0.413832493996E+03    0.12867E-04    0.12551E-04  4680   0.170E-03    0.208E-03
RMM:  45    -0.413832481720E+03    0.12276E-04    0.12026E-04  3995   0.143E-03    0.146E-03
RMM:  46    -0.413832470142E+03    0.11577E-04    0.11323E-04  3711   0.123E-03    0.141E-03
RMM:  47    -0.413832459252E+03    0.10891E-04    0.10694E-04  3480   0.110E-03    0.580E-04
RMM:  48    -0.413832449089E+03    0.10162E-04    0.99822E-05  3453   0.969E-04    0.627E-04
RMM:  49    -0.413832437372E+03    0.11717E-04    0.11456E-04  3356   0.898E-04    0.389E-04
RMM:  50    -0.413832428064E+03    0.93081E-05    0.88750E-05  3220   0.812E-04    0.468E-04
RMM:  51    -0.413832419828E+03    0.82356E-05    0.81134E-05  2991   0.736E-04    0.256E-04
RMM:  52    -0.413832412065E+03    0.77634E-05    0.76665E-05  2832   0.681E-04    0.342E-04
RMM:  53    -0.413832404886E+03    0.71794E-05    0.70833E-05  2743   0.641E-04    0.185E-04
RMM:  54    -0.413832396344E+03    0.85420E-05    0.83120E-05  2705   0.600E-04    0.338E-04
RMM:  55    -0.413832389920E+03    0.64241E-05    0.62110E-05  2599   0.565E-04    0.148E-04
RMM:  56    -0.413832384077E+03    0.58429E-05    0.57707E-05  2491   0.527E-04    0.219E-04
RMM:  57    -0.413832378559E+03    0.55179E-05    0.54379E-05  2420   0.504E-04    0.105E-04
RMM:  58    -0.413832373422E+03    0.51368E-05    0.50673E-05  2317   0.478E-04    0.190E-04
RMM:  59    -0.413832368553E+03    0.48690E-05    0.48036E-05  2296   0.460E-04    0.826E-05
RMM:  60    -0.413832364008E+03    0.45450E-05    0.44870E-05  2182   0.440E-04    0.161E-04
RMM:  61    -0.413832359670E+03    0.43382E-05    0.42870E-05  2140   0.424E-04    0.109E-04
RMM:  62    -0.413832355618E+03    0.40515E-05    0.40003E-05  2058   0.407E-04    0.146E-04
RMM:  63    -0.413832351728E+03    0.38898E-05    0.38426E-05  2025   0.397E-04    0.102E-04
RMM:  64    -0.413832348091E+03    0.36369E-05    0.35899E-05  1950   0.384E-04    0.181E-04
RMM:  65    -0.413832344585E+03    0.35070E-05    0.34654E-05  1915   0.378E-04    0.174E-04
RMM:  66    -0.413832341304E+03    0.32810E-05    0.32420E-05  1889   0.373E-04    0.165E-04
RMM:  67    -0.413832338119E+03    0.31841E-05    0.31465E-05  1814   0.364E-04    0.135E-04
RMM:  68    -0.413832335136E+03    0.29833E-05    0.29484E-05  1782   0.360E-04    0.146E-04
RMM:  69    -0.413832332230E+03    0.29059E-05    0.28725E-05  1712   0.354E-04    0.118E-04
RMM:  70    -0.413832329504E+03    0.27263E-05    0.26949E-05  1662   0.350E-04    0.150E-04
RMM:  71    -0.413832325988E+03    0.35164E-05    0.34685E-05  1591   0.345E-04    0.145E-04
RMM:  72    -0.413832323355E+03    0.26325E-05    0.24855E-05  1536   0.343E-04    0.172E-04
RMM:  73    -0.413832320930E+03    0.24250E-05    0.23964E-05  1509   0.339E-04    0.165E-04
RMM:  74    -0.413832318628E+03    0.23017E-05    0.22758E-05  1476   0.338E-04    0.188E-04
RMM:  75    -0.413832316392E+03    0.22368E-05    0.22119E-05  1441   0.334E-04    0.188E-04
RMM:  76    -0.413832314269E+03    0.21222E-05    0.21005E-05  1419   0.333E-04    0.206E-04
RMM:  77    -0.413832312197E+03    0.20727E-05    0.20500E-05  1392   0.331E-04    0.208E-04
RMM:  78    -0.413832310229E+03    0.19672E-05    0.19459E-05  1381   0.330E-04    0.221E-04
RMM:  79    -0.413832308304E+03    0.19258E-05    0.19056E-05  1353   0.328E-04    0.227E-04
RMM:  80    -0.413832306477E+03    0.18265E-05    0.18076E-05  1344   0.327E-04    0.235E-04
RMM:  81    -0.413832304683E+03    0.17943E-05    0.17756E-05  1335   0.325E-04    0.250E-04
RMM:  82    -0.413832302983E+03    0.16999E-05    0.16827E-05  1317   0.324E-04    0.255E-04
RMM:  83    -0.413832301309E+03    0.16741E-05    0.16577E-05  1298   0.323E-04    0.259E-04
RMM:  84    -0.413832299723E+03    0.15859E-05    0.15702E-05  1278   0.323E-04    0.269E-04
RMM:  85    -0.413832298159E+03    0.15644E-05    0.15499E-05  1270   0.322E-04    0.276E-04
RMM:  86    -0.413832296677E+03    0.14814E-05    0.14681E-05  1337   0.323E-04    0.282E-04
RMM:  87    -0.413832295213E+03    0.14640E-05    0.14506E-05  1263   0.319E-04    0.287E-04
RMM:  88    -0.413832293826E+03    0.13868E-05    0.13744E-05  1243   0.318E-04    0.290E-04
RMM:  89    -0.413832292455E+03    0.13708E-05    0.13588E-05  1218   0.318E-04    0.297E-04
RMM:  90    -0.413832291156E+03    0.12991E-05    0.12876E-05  1207   0.317E-04    0.305E-04
RMM:  91    -0.413832289872E+03    0.12839E-05    0.12734E-05  1197   0.318E-04    0.303E-04
RMM:  92    -0.413832288656E+03    0.12169E-05    0.12068E-05  1177   0.317E-04    0.313E-04
RMM:  93    -0.413832287452E+03    0.12031E-05    0.11938E-05  1160   0.317E-04    0.320E-04
RMM:  94    -0.413832286312E+03    0.11409E-05    0.11314E-05  1150   0.317E-04    0.325E-04
RMM:  95    -0.413832285184E+03    0.11279E-05    0.11193E-05  1124   0.317E-04    0.331E-04
RMM:  96    -0.413832284114E+03    0.10694E-05    0.10609E-05  1124   0.317E-04    0.357E-04
RMM:  97    -0.413832283057E+03    0.10575E-05    0.10496E-05  1109   0.317E-04    0.352E-04
RMM:  98    -0.413832282055E+03    0.10021E-05    0.99475E-06  1097   0.317E-04    0.357E-04
RMM:  99    -0.413832281064E+03    0.99094E-06    0.98417E-06  1083   0.317E-04
   1 F= -.41383228E+03 E0= -.41357157E+03  d E =-.413832E+03
       N       E                     dE             d eps       ncg     rms          rms(c)
DAV:   1    -0.247067484959E+04   -0.20568E+04   -0.43176E+04  6758   0.534E+02    0.511E+02
RMM:   2    -0.489646017098E+03    0.19810E+04   -0.66430E+03  6912   0.219E+02    0.167E+02
RMM:   3    -0.526191800445E+03   -0.36546E+02   -0.20399E+03  6826   0.814E+01    0.133E+02
RMM:   4    -0.691933762547E+03   -0.16574E+03   -0.11688E+03  8975   0.591E+01    0.135E+02
RMM:   5    -0.566273209047E+03    0.12566E+03   -0.26494E+02  6884   0.384E+01    0.794E+01
RMM:   6    -0.513767466277E+03    0.52506E+02   -0.81062E+01  6789   0.218E+01    0.498E+01
RMM:   7    -0.525086184293E+03   -0.11319E+02   -0.99938E+01  8238   0.147E+01    0.503E+01
RMM:   8    -0.512075048265E+03    0.13011E+02   -0.30157E+01  7154   0.108E+01    0.295E+01
RMM:   9    -0.511909400896E+03    0.16565E+00   -0.26889E+01  8320   0.804E+00    0.255E+01
RMM:  10    -0.510563926393E+03    0.13455E+01   -0.15457E+01  8401   0.595E+00    0.201E+01
RMM:  11    -0.508743984576E+03    0.18199E+01   -0.89551E+00  8193   0.545E+00    0.138E+01
RMM:  12    -0.508297491964E+03    0.44649E+00   -0.42338E+00  8580   0.301E+00    0.107E+01
RMM:  13    -0.507967250729E+03    0.33024E+00   -0.13092E+00  8844   0.155E+00    0.749E+00
RMM:  14    -0.507929607488E+03    0.37643E-01   -0.91984E-01  8670   0.143E+00    0.611E+00
RMM:  15    -0.508004873506E+03   -0.75266E-01   -0.11370E+00  9320   0.164E+00    0.566E+00
RMM:  16    -0.507981288727E+03    0.23585E-01   -0.83740E-01  9340   0.145E+00    0.545E+00
RMM:  17    -0.507891317740E+03    0.89971E-01   -0.34392E-01  9005   0.817E-01    0.389E+00
RMM:  18    -0.507841329392E+03    0.49988E-01   -0.23629E-01  9148   0.682E-01    0.271E+00
RMM:  19    -0.507803791453E+03    0.37538E-01   -0.17725E-01  9170   0.616E-01    0.113E+00
RMM:  20    -0.507802760539E+03    0.10309E-02   -0.79003E-02  9354   0.298E-01    0.562E-01
RMM:  21    -0.507803927512E+03   -0.11670E-02   -0.23217E-02  8790   0.201E-01    0.485E-01
RMM:  22    -0.507803976572E+03   -0.49060E-04   -0.12308E-02  8944   0.130E-01    0.341E-01
RMM:  23    -0.507804151300E+03   -0.17473E-03   -0.75156E-03  8855   0.973E-02    0.223E-01
RMM:  24    -0.507803978236E+03    0.17306E-03   -0.28576E-03  8485   0.724E-02    0.141E-01
RMM:  25    -0.507803990123E+03   -0.11887E-04   -0.17199E-03  8947   0.432E-02    0.119E-01
RMM:  26    -0.507804005302E+03   -0.15179E-04   -0.76452E-04  8721   0.338E-02    0.877E-02
RMM:  27    -0.507803983037E+03    0.22265E-04   -0.46176E-04  8506   0.286E-02    0.425E-02
RMM:  28    -0.507804003849E+03   -0.20813E-04   -0.23378E-04  8814   0.169E-02    0.490E-02
RMM:  29    -0.507803991651E+03    0.12199E-04   -0.76379E-05  6702   0.117E-02    0.254E-02
RMM:  30    -0.507803997043E+03   -0.53927E-05   -0.63811E-05  7511   0.760E-03    0.301E-02
RMM:  31    -0.507803994327E+03    0.27161E-05   -0.23365E-05  7044   0.573E-03    0.188E-02
RMM:  32    -0.507803993861E+03    0.46664E-06   -0.14331E-05  6535   0.386E-03    0.143E-02
RMM:  33    -0.507803993135E+03    0.72606E-06   -0.58350E-06  5591   0.284E-03
   2 F= -.50780399E+03 E0= -.50774582E+03  d E =-.939717E+02
       N       E                     dE             d eps       ncg     rms          rms(c)
DAV:   1    -0.157497693100E+04   -0.10672E+04   -0.26526E+04  6752   0.467E+02    0.535E+02
RMM:   2    -0.524227282084E+03    0.10507E+04   -0.37145E+03  6752   0.179E+02    0.148E+02
RMM:   3    -0.539773132933E+03   -0.15546E+02   -0.92348E+02  6766   0.635E+01    0.129E+02
RMM:   4    -0.555529272573E+03   -0.15756E+02   -0.45813E+02  7439   0.483E+01    0.944E+01
RMM:   5    -0.526837643387E+03    0.28692E+02   -0.11688E+02  6932   0.270E+01    0.563E+01
RMM:   6    -0.510215641356E+03    0.16622E+02   -0.48164E+01  6850   0.180E+01    0.336E+01
RMM:   7    -0.511165808573E+03   -0.95017E+00   -0.29672E+01  7859   0.969E+00    0.237E+01
RMM:   8    -0.509913535129E+03    0.12523E+01   -0.80802E+00  7160   0.666E+00    0.138E+01
RMM:   9    -0.510475665572E+03   -0.56213E+00   -0.77206E+00  7924   0.502E+00    0.121E+01
RMM:  10    -0.509795283946E+03    0.68038E+00   -0.34998E+00  7449   0.373E+00    0.578E+00
RMM:  11    -0.509742593266E+03    0.52691E-01   -0.15638E+00  8033   0.225E+00    0.425E+00
RMM:  12    -0.509703595652E+03    0.38998E-01   -0.53761E-01  7859   0.140E+00    0.276E+00
RMM:  13    -0.509704960602E+03   -0.13650E-02   -0.31285E-01  7421   0.121E+00    0.220E+00
RMM:  14    -0.509682890824E+03    0.22070E-01   -0.14058E-01  7223   0.852E-01    0.121E+00
RMM:  15    -0.509678388588E+03    0.45022E-02   -0.62811E-02  7314   0.570E-01    0.839E-01
RMM:  16    -0.509678355262E+03    0.33326E-04   -0.43632E-02  8343   0.363E-01    0.695E-01
RMM:  17    -0.509675064421E+03    0.32908E-02   -0.15302E-02  7709   0.248E-01    0.269E-01
RMM:  18    -0.509675000959E+03    0.63461E-04   -0.79251E-03  8452   0.144E-01    0.196E-01
RMM:  19    -0.509674946164E+03    0.54796E-04   -0.23826E-03  9367   0.799E-02    0.149E-01
RMM:  20    -0.509674895286E+03    0.50878E-04   -0.92323E-04  8150   0.515E-02    0.107E-01
RMM:  21    -0.509674902871E+03   -0.75854E-05   -0.53251E-04  8427   0.354E-02    0.907E-02
RMM:  22    -0.509674877978E+03    0.24893E-04   -0.31207E-04  7908   0.328E-02    0.460E-02
RMM:  23    -0.509674887922E+03   -0.99439E-05   -0.18149E-04  8279   0.214E-02    0.441E-02
RMM:  24    -0.509674871586E+03    0.16336E-04   -0.58680E-05  6832   0.158E-02    0.176E-02
RMM:  25    -0.509674873795E+03   -0.22087E-05   -0.46760E-05  7070   0.839E-03    0.148E-02
RMM:  26    -0.509674873090E+03    0.70509E-06   -0.14025E-05  6619   0.556E-03    0.955E-03
RMM:  27    -0.509674872953E+03    0.13676E-06   -0.64995E-06  5729   0.390E-03
   3 F= -.50967487E+03 E0= -.50959769E+03  d E =-.187088E+01
       N       E                     dE             d eps       ncg     rms          rms(c)
DAV:   1    -0.650033599891E+03   -0.14036E+03   -0.36518E+03  6796   0.202E+02    0.118E+02
RMM:   2    -0.581858779348E+03    0.68175E+02   -0.66321E+02  6759   0.708E+01    0.625E+01
RMM:   3    -0.604088536793E+03   -0.22230E+02   -0.81993E+02  9362   0.460E+01    0.709E+01
RMM:   4    -0.531836443431E+03    0.72252E+02   -0.13188E+02  6814   0.249E+01    0.395E+01
RMM:   5    -0.522870089982E+03    0.89664E+01   -0.52975E+01  7103   0.147E+01    0.186E+01
RMM:   6    -0.521233870224E+03    0.16362E+01   -0.15535E+01  7599   0.685E+00    0.108E+01
RMM:   7    -0.521074767950E+03    0.15910E+00   -0.62820E+00  8262   0.373E+00    0.911E+00
RMM:   8    -0.521039359794E+03    0.35408E-01   -0.26338E+00  7596   0.292E+00    0.831E+00
RMM:   9    -0.521014865524E+03    0.24494E-01   -0.19465E+00  7905   0.245E+00    0.665E+00
RMM:  10    -0.520935613222E+03    0.79252E-01   -0.92256E-01  7411   0.199E+00    0.473E+00
RMM:  11    -0.520884145834E+03    0.51467E-01   -0.49502E-01  7479   0.134E+00    0.291E+00
RMM:  12    -0.520846711418E+03    0.37434E-01   -0.29799E-01  7648   0.960E-01    0.168E+00
RMM:  13    -0.520847451564E+03   -0.74015E-03   -0.22721E-01  8153   0.810E-01    0.156E+00
RMM:  14    -0.520839643702E+03    0.78079E-02   -0.94279E-02  8002   0.516E-01    0.110E+00
RMM:  15    -0.520833578633E+03    0.60651E-02   -0.24559E-02  7583   0.312E-01    0.641E-01
RMM:  16    -0.520831894619E+03    0.16840E-02   -0.13950E-02  8178   0.189E-01    0.386E-01
RMM:  17    -0.520831321537E+03    0.57308E-03   -0.62402E-03  8412   0.114E-01    0.197E-01
RMM:  18    -0.520831471058E+03   -0.14952E-03   -0.24577E-03  8635   0.702E-02    0.178E-01
RMM:  19    -0.520831400008E+03    0.71051E-04   -0.78556E-04  7909   0.491E-02    0.124E-01
RMM:  20    -0.520831412516E+03   -0.12508E-04   -0.82057E-04  8497   0.420E-02    0.101E-01
RMM:  21    -0.520831333476E+03    0.79039E-04   -0.35587E-04  7953   0.344E-02    0.414E-02
RMM:  22    -0.520831332289E+03    0.11871E-05   -0.19295E-04  8674   0.182E-02    0.287E-02
RMM:  23    -0.520831331506E+03    0.78345E-06   -0.55854E-05  7096   0.110E-02    0.206E-02
RMM:  24    -0.520831331040E+03    0.46611E-06   -0.30063E-05  6986   0.825E-03    0.149E-02
RMM:  25    -0.520831332304E+03   -0.12641E-05   -0.16462E-05  6862   0.627E-03    0.143E-02
RMM:  26    -0.520831331523E+03    0.78074E-06   -0.63541E-06  5956   0.507E-03
   4 F= -.52083133E+03 E0= -.52083098E+03  d E =-.111565E+02
       N       E                     dE             d eps       ncg     rms          rms(c)
DAV:   1    -0.607140104542E+03   -0.86309E+02   -0.23160E+03  6848   0.158E+02    0.910E+01
RMM:   2    -0.564101570740E+03    0.43039E+02   -0.49073E+02  6755   0.589E+01    0.572E+01
RMM:   3    -0.585740405579E+03   -0.21639E+02   -0.60929E+02  9301   0.373E+01    0.649E+01
RMM:   4    -0.529699501801E+03    0.56041E+02   -0.98413E+01  6860   0.204E+01    0.342E+01
RMM:   5    -0.523202241655E+03    0.64973E+01   -0.44035E+01  7231   0.127E+01    0.175E+01
RMM:   6    -0.521250056540E+03    0.19522E+01   -0.11995E+01  7497   0.612E+00    0.955E+00
RMM:   7    -0.521070555872E+03    0.17950E+00   -0.56638E+00  8333   0.341E+00    0.803E+00
RMM:   8    -0.520960993125E+03    0.10956E+00   -0.24667E+00  7817   0.267E+00    0.695E+00
RMM:   9    -0.520984187843E+03   -0.23195E-01   -0.17600E+00  8120   0.223E+00    0.600E+00
RMM:  10    -0.520894573796E+03    0.89614E-01   -0.78202E-01  7351   0.180E+00    0.446E+00
RMM:  11    -0.520844027119E+03    0.50547E-01   -0.39225E-01  7604   0.113E+00    0.300E+00
RMM:  12    -0.520808307627E+03    0.35719E-01   -0.27486E-01  8206   0.760E-01    0.163E+00
RMM:  13    -0.520805735513E+03    0.25721E-02   -0.19318E-01  8463   0.735E-01    0.140E+00
RMM:  14    -0.520802281098E+03    0.34544E-02   -0.97266E-02  8270   0.514E-01    0.116E+00
RMM:  15    -0.520794459564E+03    0.78215E-02   -0.27437E-02  7841   0.304E-01    0.541E-01
RMM:  16    -0.520794320896E+03    0.13867E-03   -0.15421E-02  8503   0.177E-01    0.428E-01
RMM:  17    -0.520793229620E+03    0.10913E-02   -0.57621E-03  8370   0.115E-01    0.206E-01
RMM:  18    -0.520793219312E+03    0.10308E-04   -0.29167E-03  8963   0.630E-02    0.141E-01
RMM:  19    -0.520793214032E+03    0.52806E-05   -0.90739E-04  8653   0.407E-02    0.976E-02
RMM:  20    -0.520793239293E+03   -0.25261E-04   -0.50998E-04  8630   0.327E-02    0.876E-02
RMM:  21    -0.520793243917E+03   -0.46238E-05   -0.33066E-04  8371   0.277E-02    0.783E-02
RMM:  22    -0.520793201775E+03    0.42142E-04   -0.17083E-04  8131   0.233E-02    0.294E-02
RMM:  23    -0.520793203972E+03   -0.21976E-05   -0.90492E-05  7440   0.108E-02    0.210E-02
RMM:  24    -0.520793202593E+03    0.13796E-05   -0.32697E-05  7256   0.728E-03    0.141E-02
RMM:  25    -0.520793202111E+03    0.48232E-06   -0.15237E-05  6908   0.506E-03    0.858E-03
RMM:  26    -0.520793202448E+03   -0.33761E-06   -0.81279E-06  6277   0.391E-03
   5 F= -.52079320E+03 E0= -.52079441E+03  d E =0.381291E-01
       N       E                     dE             d eps       ncg     rms          rms(c)
DAV:   1    -0.527211322727E+03   -0.64181E+01   -0.28156E+02  6808   0.684E+01    0.312E+01
RMM:   2    -0.521571972913E+03    0.56393E+01   -0.43134E+01  6752   0.224E+01    0.108E+01
RMM:   3    -0.527077824517E+03   -0.55059E+01   -0.20804E+01  7321   0.958E+00    0.255E+01
RMM:   4    -0.521666892795E+03    0.54109E+01   -0.78907E+00  7297   0.693E+00    0.533E+00
RMM:   5    -0.522136089015E+03   -0.46920E+00   -0.45326E+00  8247   0.331E+00    0.741E+00
RMM:   6    -0.521726399849E+03    0.40969E+00   -0.90736E-01  6849   0.229E+00    0.271E+00
RMM:   7    -0.521732770092E+03   -0.63702E-02   -0.46794E-01  7880   0.125E+00    0.206E+00
RMM:   8    -0.521729086626E+03    0.36835E-02   -0.20940E-01  8063   0.791E-01    0.139E+00
RMM:   9    -0.521744908646E+03   -0.15822E-01   -0.12442E-01  7997   0.616E-01    0.151E+00
RMM:  10    -0.521728606104E+03    0.16303E-01   -0.38212E-02  7162   0.430E-01    0.872E-01
RMM:  11    -0.521724295559E+03    0.43105E-02   -0.23132E-02  8020   0.269E-01    0.479E-01
RMM:  12    -0.521722598181E+03    0.16974E-02   -0.11208E-02  8208   0.169E-01    0.158E-01
RMM:  13    -0.521722907650E+03   -0.30947E-03   -0.51844E-03  9209   0.933E-02    0.188E-01
RMM:  14    -0.521722743611E+03    0.16404E-03   -0.14250E-03  8254   0.642E-02    0.118E-01
RMM:  15    -0.521722725844E+03    0.17767E-04   -0.87315E-04  8380   0.479E-02    0.104E-01
RMM:  16    -0.521722660601E+03    0.65243E-04   -0.41519E-04  8112   0.354E-02    0.603E-02
RMM:  17    -0.521722637940E+03    0.22660E-04   -0.19586E-04  8519   0.220E-02    0.314E-02
RMM:  18    -0.521722630431E+03    0.75098E-05   -0.86336E-05  7907   0.131E-02    0.226E-02
RMM:  19    -0.521722624149E+03    0.62815E-05   -0.42506E-05  6950   0.104E-02    0.185E-02
RMM:  20    -0.521722621869E+03    0.22804E-05   -0.22178E-05  6963   0.694E-03    0.160E-02
RMM:  21    -0.521722621125E+03    0.74395E-06   -0.11635E-05  6410   0.613E-03    0.100E-02
RMM:  22    -0.521722620759E+03    0.36597E-06   -0.58007E-06  5841   0.394E-03
   6 F= -.52172262E+03 E0= -.52173350E+03  d E =-.929418E+00
       N       E                     dE             d eps       ncg     rms          rms(c)
DAV:   1    -0.532636243662E+03   -0.10914E+02   -0.36221E+02  6752   0.693E+01    0.416E+01
RMM:   2    -0.522448275830E+03    0.10188E+02   -0.63222E+01  6752   0.241E+01    0.146E+01
RMM:   3    -0.530285086600E+03   -0.78368E+01   -0.29660E+01  7175   0.107E+01    0.311E+01
RMM:   4    -0.521900684930E+03    0.83844E+01   -0.12324E+01  6909   0.848E+00    0.699E+00
RMM:   5    -0.522495004243E+03   -0.59432E+00   -0.70891E+00  8192   0.401E+00    0.894E+00
RMM:   6    -0.521916359528E+03    0.57864E+00   -0.14213E+00  6838   0.284E+00    0.340E+00
RMM:   7    -0.521905853181E+03    0.10506E-01   -0.64457E-01  7566   0.155E+00    0.236E+00
RMM:   8    -0.521898820610E+03    0.70326E-02   -0.27731E-01  7697   0.956E-01    0.148E+00
RMM:   9    -0.521924597603E+03   -0.25777E-01   -0.16972E-01  8046   0.689E-01    0.169E+00
RMM:  10    -0.521901150059E+03    0.23448E-01   -0.43724E-02  7021   0.493E-01    0.871E-01
RMM:  11    -0.521897462134E+03    0.36879E-02   -0.35591E-02  8185   0.306E-01    0.506E-01
RMM:  12    -0.521895582007E+03    0.18801E-02   -0.16200E-02  8230   0.195E-01    0.198E-01
RMM:  13    -0.521895876357E+03   -0.29435E-03   -0.56528E-03  9118   0.106E-01    0.215E-01
RMM:  14    -0.521895633167E+03    0.24319E-03   -0.14834E-03  8516   0.665E-02    0.153E-01
RMM:  15    -0.521895592378E+03    0.40788E-04   -0.95164E-04  8148   0.532E-02    0.125E-01
RMM:  16    -0.521895466246E+03    0.12613E-03   -0.44379E-04  7622   0.408E-02    0.509E-02
RMM:  17    -0.521895460013E+03    0.62334E-05   -0.25530E-04  8662   0.232E-02    0.375E-02
RMM:  18    -0.521895447841E+03    0.12172E-04   -0.89098E-05  7452   0.154E-02    0.247E-02
RMM:  19    -0.521895441143E+03    0.66984E-05   -0.54880E-05  7102   0.117E-02    0.226E-02
RMM:  20    -0.521895438202E+03    0.29409E-05   -0.23002E-05  6543   0.813E-03    0.153E-02
RMM:  21    -0.521895437108E+03    0.10941E-05   -0.98846E-06  6079   0.596E-03    0.807E-03
RMM:  22    -0.521895436938E+03    0.16981E-06   -0.48628E-06  5526   0.330E-03
   7 F= -.52189544E+03 E0= -.52190992E+03  d E =-.172816E+00
       N       E                     dE             d eps       ncg     rms          rms(c)
DAV:   1    -0.522039415459E+03   -0.14398E+00   -0.36629E+01  6876   0.276E+01    0.736E+00
RMM:   2    -0.522117590779E+03   -0.78175E-01   -0.55626E+00  6753   0.893E+00    0.514E+00
RMM:   3    -0.522437455725E+03   -0.31986E+00   -0.30649E+00  6919   0.438E+00    0.633E+00
RMM:   4    -0.522020641193E+03    0.41681E+00   -0.78326E-01  8130   0.226E+00    0.177E+00
RMM:   5    -0.522022097694E+03   -0.14565E-02   -0.26429E-01  7721   0.882E-01    0.155E+00
RMM:   6    -0.522013321910E+03    0.87758E-02   -0.81754E-02  7773   0.521E-01    0.931E-01
RMM:   7    -0.522011572881E+03    0.17490E-02   -0.34667E-02  7239   0.394E-01    0.633E-01
RMM:   8    -0.522010750720E+03    0.82216E-03   -0.22452E-02  7715   0.259E-01    0.400E-01
RMM:   9    -0.522011693760E+03   -0.94304E-03   -0.11896E-02  8088   0.183E-01    0.382E-01
RMM:  10    -0.522010681324E+03    0.10124E-02   -0.47799E-03  7708   0.133E-01    0.188E-01
RMM:  11    -0.522010656959E+03    0.24364E-04   -0.28274E-03  8467   0.790E-02    0.117E-01
RMM:  12    -0.522010667702E+03   -0.10743E-04   -0.10776E-03  8569   0.481E-02    0.794E-02
RMM:  13    -0.522010669964E+03   -0.22617E-05   -0.48082E-04  8539   0.331E-02    0.618E-02
RMM:  14    -0.522010673781E+03   -0.38165E-05   -0.22260E-04  8301   0.237E-02    0.488E-02
RMM:  15    -0.522010668679E+03    0.51012E-05   -0.90086E-05  8034   0.167E-02    0.233E-02
RMM:  16    -0.522010672647E+03   -0.39676E-05   -0.56557E-05  7324   0.106E-02    0.162E-02
RMM:  17    -0.522010674959E+03   -0.23117E-05   -0.23028E-05  6964   0.750E-03    0.117E-02
RMM:  18    -0.522010676318E+03   -0.13592E-05   -0.10913E-05  6518   0.503E-03    0.808E-03
RMM:  19    -0.522010676959E+03   -0.64112E-06   -0.42192E-06  5202   0.315E-03
   8 F= -.52201068E+03 E0= -.52202606E+03  d E =-.115240E+00
       N       E                     dE             d eps       ncg     rms          rms(c)
DAV:   1    -0.523517468722E+03   -0.15068E+01   -0.60139E+01  6768   0.290E+01    0.142E+01
RMM:   2    -0.522489188033E+03    0.10283E+01   -0.11186E+01  6752   0.106E+01    0.796E+00
RMM:   3    -0.524082704577E+03   -0.15935E+01   -0.10771E+01  7569   0.607E+00    0.133E+01
RMM:   4    -0.522082126896E+03    0.20006E+01   -0.27863E+00  7001   0.375E+00    0.282E+00
RMM:   5    -0.522196018022E+03   -0.11389E+00   -0.15407E+00  8539   0.176E+00    0.330E+00
RMM:   6    -0.522120688779E+03    0.75329E-01   -0.28479E-01  7313   0.107E+00    0.140E+00
RMM:   7    -0.522118900577E+03    0.17882E-02   -0.12987E-01  7517   0.691E-01    0.110E+00
RMM:   8    -0.522115083078E+03    0.38175E-02   -0.71323E-02  7959   0.440E-01    0.654E-01
RMM:   9    -0.522117569351E+03   -0.24863E-02   -0.30433E-02  7976   0.310E-01    0.640E-01
RMM:  10    -0.522115126498E+03    0.24429E-02   -0.12073E-02  7570   0.217E-01    0.368E-01
RMM:  11    -0.522115059393E+03    0.67105E-04   -0.82110E-03  8288   0.143E-01    0.260E-01
RMM:  12    -0.522114911302E+03    0.14809E-03   -0.45265E-03  8383   0.998E-02    0.158E-01
RMM:  13    -0.522114955230E+03   -0.43928E-04   -0.17504E-03  8800   0.610E-02    0.147E-01
RMM:  14    -0.522114855564E+03    0.99666E-04   -0.57690E-04  8128   0.421E-02    0.913E-02
RMM:  15    -0.522114823292E+03    0.32273E-04   -0.24429E-04  8048   0.286E-02    0.506E-02
RMM:  16    -0.522114825513E+03   -0.22211E-05   -0.18536E-04  8599   0.189E-02    0.291E-02
RMM:  17    -0.522114828617E+03   -0.31043E-05   -0.78007E-05  7686   0.131E-02    0.181E-02
RMM:  18    -0.522114832054E+03   -0.34367E-05   -0.32914E-05  7246   0.825E-03    0.162E-02
RMM:  19    -0.522114833310E+03   -0.12562E-05   -0.97071E-06  6288   0.563E-03    0.118E-02
RMM:  20    -0.522114833308E+03    0.19245E-08   -0.50239E-06  5600   0.394E-03
   9 F= -.52211483E+03 E0= -.52213169E+03  d E =-.104156E+00
       N       E                     dE             d eps       ncg     rms          rms(c)
DAV:   1    -0.522407798234E+03   -0.29296E+00   -0.30222E+01  7932   0.198E+01    0.429E+00
RMM:   2    -0.522335917949E+03    0.71880E-01   -0.13849E+00  6905   0.429E+00    0.250E+00
RMM:   3    -0.522427603914E+03   -0.91686E-01   -0.87181E-01  7306   0.239E+00    0.361E+00
RMM:   4    -0.522304630682E+03    0.12297E+00   -0.29676E-01  6824   0.160E+00    0.100E+00
RMM:   5    -0.522317164608E+03   -0.12534E-01   -0.21809E-01  8718   0.770E-01    0.936E-01
RMM:   6    -0.522313011106E+03    0.41535E-02   -0.44583E-02  8410   0.434E-01    0.507E-01
RMM:   7    -0.522312404101E+03    0.60701E-03   -0.20430E-02  8798   0.237E-01    0.320E-01
RMM:   8    -0.522312511908E+03   -0.10781E-03   -0.79021E-03  9041   0.133E-01    0.230E-01
RMM:   9    -0.522312638922E+03   -0.12701E-03   -0.31675E-03  8601   0.880E-02    0.181E-01
RMM:  10    -0.522312738240E+03   -0.99318E-04   -0.17760E-03  8494   0.647E-02    0.146E-01
RMM:  11    -0.522312765327E+03   -0.27087E-04   -0.13085E-03  8385   0.621E-02    0.112E-01
RMM:  12    -0.522312742621E+03    0.22706E-04   -0.77156E-04  8558   0.451E-02    0.828E-02
RMM:  13    -0.522312719145E+03    0.23476E-04   -0.30649E-04  8126   0.300E-02    0.582E-02
RMM:  14    -0.522312698553E+03    0.20592E-04   -0.14572E-04  8221   0.203E-02    0.253E-02
RMM:  15    -0.522312698910E+03   -0.35673E-06   -0.71545E-05  7561   0.107E-02    0.137E-02
RMM:  16    -0.522312700560E+03   -0.16503E-05   -0.28541E-05  7385   0.694E-03    0.127E-02
RMM:  17    -0.522312700734E+03   -0.17340E-06   -0.11735E-05  6510   0.455E-03    0.951E-03
RMM:  18    -0.522312700902E+03   -0.16784E-06   -0.58060E-06  5620   0.366E-03
  10 F= -.52231270E+03 E0= -.52233316E+03  d E =-.197868E+00
       N       E                     dE             d eps       ncg     rms          rms(c)
DAV:   1    -0.523635505100E+03   -0.13228E+01   -0.70675E+01  7600   0.240E+01    0.854E+00
RMM:   2    -0.523056866338E+03    0.57864E+00   -0.29002E+00  6867   0.602E+00    0.464E+00
RMM:   3    -0.523584924167E+03   -0.52806E+00   -0.29621E+00  7621   0.358E+00    0.826E+00
RMM:   4    -0.522893104320E+03    0.69182E+00   -0.11386E+00  6920   0.253E+00    0.210E+00
RMM:   5    -0.522956098819E+03   -0.62994E-01   -0.93833E-01  8234   0.149E+00    0.260E+00
RMM:   6    -0.522898822046E+03    0.57277E-01   -0.22758E-01  7211   0.102E+00    0.116E+00
RMM:   7    -0.522894812208E+03    0.40098E-02   -0.12467E-01  8290   0.604E-01    0.736E-01
RMM:   8    -0.522893976661E+03    0.83555E-03   -0.41619E-02 10135   0.326E-01    0.445E-01
RMM:   9    -0.522894929151E+03   -0.95249E-03   -0.15567E-02  8825   0.172E-01    0.375E-01
RMM:  10    -0.522894443729E+03    0.48542E-03   -0.53350E-03  8173   0.118E-01    0.222E-01
RMM:  11    -0.522894781077E+03   -0.33735E-03   -0.38461E-03  8512   0.937E-02    0.211E-01
RMM:  12    -0.522894497575E+03    0.28350E-03   -0.13262E-03  7656   0.713E-02    0.965E-02
RMM:  13    -0.522894595750E+03   -0.98175E-04   -0.12238E-03  8726   0.462E-02    0.100E-01
RMM:  14    -0.522894552761E+03    0.42989E-04   -0.41164E-04  8234   0.332E-02    0.497E-02
RMM:  15    -0.522894552247E+03    0.51387E-06   -0.25449E-04  8708   0.215E-02    0.364E-02
RMM:  16    -0.522894547341E+03    0.49063E-05   -0.82344E-05  7713   0.126E-02    0.240E-02
RMM:  17    -0.522894546781E+03    0.56018E-06   -0.35829E-05  7299   0.838E-03    0.182E-02
RMM:  18    -0.522894546878E+03   -0.96894E-07   -0.16437E-05  6879   0.619E-03    0.145E-02
RMM:  19    -0.522894546592E+03    0.28589E-06   -0.12075E-05  6902   0.555E-03    0.862E-03
RMM:  20    -0.522894546692E+03   -0.10006E-06   -0.59824E-06  5926   0.389E-03
  11 F= -.52289455E+03 E0= -.52292517E+03  d E =-.581846E+00
       N       E                     dE             d eps       ncg     rms          rms(c)
DAV:   1    -0.526539234596E+03   -0.36447E+01   -0.18492E+02  6760   0.325E+01    0.130E+01
RMM:   2    -0.525099566890E+03    0.14397E+01   -0.58526E+00  6777   0.932E+00    0.733E+00
RMM:   3    -0.526222608045E+03   -0.11230E+01   -0.77621E+00  7711   0.561E+00    0.126E+01
RMM:   4    -0.524579213610E+03    0.16434E+01   -0.31149E+00  6956   0.416E+00    0.296E+00
RMM:   5    -0.524637140807E+03   -0.57927E-01   -0.18168E+00  8430   0.190E+00    0.200E+00
RMM:   6    -0.524636274544E+03    0.86626E-03   -0.36427E-01  9207   0.102E+00    0.140E+00
RMM:   7    -0.524626986573E+03    0.92880E-02   -0.12295E-01  8922   0.575E-01    0.854E-01
RMM:   8    -0.524625890462E+03    0.10961E-02   -0.42128E-02  9419   0.304E-01    0.589E-01
RMM:   9    -0.524626744742E+03   -0.85428E-03   -0.20649E-02  8781   0.206E-01    0.438E-01
RMM:  10    -0.524628470557E+03   -0.17258E-02   -0.13202E-02  8629   0.181E-01    0.391E-01
RMM:  11    -0.524628916127E+03   -0.44557E-03   -0.73527E-03  8363   0.152E-01    0.331E-01
RMM:  12    -0.524627893959E+03    0.10222E-02   -0.25537E-03  7520   0.110E-01    0.135E-01
RMM:  13    -0.524627979289E+03   -0.85330E-04   -0.21706E-03  8751   0.576E-02    0.105E-01
RMM:  14    -0.524627947918E+03    0.31371E-04   -0.69751E-04  8680   0.381E-02    0.525E-02
RMM:  15    -0.524627954924E+03   -0.70052E-05   -0.35320E-04  8763   0.253E-02    0.468E-02
RMM:  16    -0.524627943715E+03    0.11209E-04   -0.11613E-04  8583   0.159E-02    0.293E-02
RMM:  17    -0.524627945372E+03   -0.16570E-05   -0.60991E-05  7641   0.104E-02    0.256E-02
RMM:  18    -0.524627943956E+03    0.14157E-05   -0.26056E-05  6948   0.844E-03    0.145E-02
RMM:  19    -0.524627944212E+03   -0.25552E-06   -0.15858E-05  7034   0.594E-03    0.106E-02
RMM:  20    -0.524627944127E+03    0.84263E-07   -0.67290E-06  5980   0.423E-03
  12 F= -.52462794E+03 E0= -.52468373E+03  d E =-.173340E+01
       N       E                     dE             d eps       ncg     rms          rms(c)
DAV:   1    -0.535187223867E+03   -0.10559E+02   -0.52458E+02  6760   0.523E+01    0.221E+01
RMM:   2    -0.530803034350E+03    0.43842E+01   -0.15348E+01  6777   0.147E+01    0.127E+01
RMM:   3    -0.534136111938E+03   -0.33331E+01   -0.21979E+01  7767   0.942E+00    0.225E+01
RMM:   4    -0.529243704380E+03    0.48924E+01   -0.10398E+01  7065   0.721E+00    0.560E+00
RMM:   5    -0.529268540180E+03   -0.24836E-01   -0.51905E+00  8383   0.326E+00    0.334E+00
RMM:   6    -0.529280364012E+03   -0.11824E-01   -0.11162E+00  8628   0.175E+00    0.252E+00
RMM:   7    -0.529237272227E+03    0.43092E-01   -0.33329E-01  8729   0.111E+00    0.142E+00
RMM:   8    -0.529235533993E+03    0.17382E-02   -0.14325E-01  9910   0.590E-01    0.102E+00
RMM:   9    -0.529237263376E+03   -0.17294E-02   -0.61366E-02  8765   0.359E-01    0.767E-01
RMM:  10    -0.529240152643E+03   -0.28893E-02   -0.34682E-02  8593   0.297E-01    0.624E-01
RMM:  11    -0.529242155354E+03   -0.20027E-02   -0.23297E-02  8521   0.261E-01    0.561E-01
RMM:  12    -0.529239498230E+03    0.26571E-02   -0.79453E-03  7581   0.196E-01    0.228E-01
RMM:  13    -0.529239738198E+03   -0.23997E-03   -0.67527E-03  8738   0.109E-01    0.185E-01
RMM:  14    -0.529239644489E+03    0.93709E-04   -0.22505E-03  8555   0.720E-02    0.104E-01
RMM:  15    -0.529239656652E+03   -0.12163E-04   -0.10664E-03  8759   0.472E-02    0.853E-02
RMM:  16    -0.529239610383E+03    0.46269E-04   -0.34324E-04  8447   0.305E-02    0.503E-02
RMM:  17    -0.529239614765E+03   -0.43812E-05   -0.18118E-04  8718   0.202E-02    0.424E-02
RMM:  18    -0.529239612390E+03    0.23747E-05   -0.84481E-05  8308   0.160E-02    0.273E-02
RMM:  19    -0.529239611403E+03    0.98687E-06   -0.45419E-05  7507   0.107E-02    0.177E-02
RMM:  20    -0.529239612151E+03   -0.74846E-06   -0.23913E-05  7055   0.797E-03    0.153E-02
RMM:  21    -0.529239610922E+03    0.12294E-05   -0.10459E-05  6494   0.597E-03    0.682E-03
RMM:  22    -0.529239611181E+03   -0.25881E-06   -0.62755E-06  5972   0.347E-03
  13 F= -.52923961E+03 E0= -.52928962E+03  d E =-.461167E+01
       N       E                     dE             d eps       ncg     rms          rms(c)
DAV:   1    -0.554955205694E+03   -0.25716E+02   -0.12787E+03  6752   0.816E+01    0.347E+01
RMM:   2    -0.543790292207E+03    0.11165E+02   -0.41879E+01  6820   0.227E+01    0.213E+01
RMM:   3    -0.551226209407E+03   -0.74359E+01   -0.41388E+01  7381   0.143E+01    0.358E+01
RMM:   4    -0.540088930650E+03    0.11137E+02   -0.24621E+01  7238   0.109E+01    0.115E+01
RMM:   5    -0.539208462206E+03    0.88047E+00   -0.12759E+01  8147   0.583E+00    0.653E+00
RMM:   6    -0.539171615570E+03    0.36847E-01   -0.38354E+00  8104   0.336E+00    0.496E+00
RMM:   7    -0.538928173237E+03    0.24344E+00   -0.98984E-01  7465   0.228E+00    0.231E+00
RMM:   8    -0.538938604123E+03   -0.10431E-01   -0.61481E-01 10011   0.122E+00    0.178E+00
RMM:   9    -0.538944903765E+03   -0.62996E-02   -0.20594E-01  8630   0.689E-01    0.138E+00
RMM:  10    -0.538943006530E+03    0.18972E-02   -0.83176E-02  8398   0.487E-01    0.905E-01
RMM:  11    -0.538946612669E+03   -0.36061E-02   -0.61129E-02  8405   0.415E-01    0.768E-01
RMM:  12    -0.538946089171E+03    0.52350E-03   -0.26618E-02  7968   0.317E-01    0.450E-01
RMM:  13    -0.538945801129E+03    0.28804E-03   -0.15273E-02  8448   0.210E-01    0.314E-01
RMM:  14    -0.538945789117E+03    0.12012E-04   -0.77044E-03  8531   0.135E-01    0.242E-01
RMM:  15    -0.538945632474E+03    0.15664E-03   -0.33461E-03  8576   0.932E-02    0.157E-01
RMM:  16    -0.538945547532E+03    0.84942E-04   -0.14728E-03  8676   0.587E-02    0.931E-02
RMM:  17    -0.538945524590E+03    0.22942E-04   -0.56671E-04  8781   0.364E-02    0.568E-02
RMM:  18    -0.538945536678E+03   -0.12088E-04   -0.26378E-04  8763   0.245E-02    0.450E-02
RMM:  19    -0.538945535700E+03    0.97835E-06   -0.11394E-04  8620   0.163E-02    0.318E-02
RMM:  20    -0.538945540902E+03   -0.52018E-05   -0.83197E-05  8322   0.138E-02    0.283E-02
RMM:  21    -0.538945536225E+03    0.46773E-05   -0.33999E-05  6666   0.105E-02    0.116E-02
RMM:  22    -0.538945537329E+03   -0.11041E-05   -0.23187E-05  7397   0.642E-03    0.101E-02
RMM:  23    -0.538945537270E+03    0.58459E-07   -0.87881E-06  6268   0.444E-03
  14 F= -.53894554E+03 E0= -.53896168E+03  d E =-.970593E+01
       N       E                     dE             d eps       ncg     rms          rms(c)
DAV:   1    -0.584874907507E+03   -0.45929E+02   -0.22430E+03  6752   0.109E+02    0.472E+01
RMM:   2    -0.563370996974E+03    0.21504E+02   -0.88571E+01  6767   0.309E+01    0.299E+01
RMM:   3    -0.572679426799E+03   -0.93084E+01   -0.52002E+01  6875   0.180E+01    0.433E+01
RMM:   4    -0.556495382610E+03    0.16184E+02   -0.37093E+01  7312   0.138E+01    0.164E+01
RMM:   5    -0.554811646534E+03    0.16837E+01   -0.22584E+01  7856   0.858E+00    0.122E+01
RMM:   6    -0.554197324724E+03    0.61432E+00   -0.91220E+00  7653   0.560E+00    0.817E+00
RMM:   7    -0.553502509626E+03    0.69482E+00   -0.26271E+00  7397   0.365E+00    0.340E+00
RMM:   8    -0.553551425869E+03   -0.48916E-01   -0.16970E+00  9165   0.185E+00    0.254E+00
RMM:   9    -0.553570683561E+03   -0.19258E-01   -0.53623E-01  8557   0.116E+00    0.212E+00
RMM:  10    -0.553548677618E+03    0.22006E-01   -0.18881E-01  8138   0.809E-01    0.113E+00
RMM:  11    -0.553556316571E+03   -0.76390E-02   -0.13120E-01  8552   0.580E-01    0.999E-01
RMM:  12    -0.553554618933E+03    0.16976E-02   -0.49171E-02  7803   0.439E-01    0.538E-01
RMM:  13    -0.553557019113E+03   -0.24002E-02   -0.37967E-02  8567   0.297E-01    0.554E-01
RMM:  14    -0.553555372646E+03    0.16465E-02   -0.12329E-02  7808   0.208E-01    0.249E-01
RMM:  15    -0.553555845815E+03   -0.47317E-03   -0.92051E-03  8633   0.136E-01    0.212E-01
RMM:  16    -0.553555626840E+03    0.21897E-03   -0.28236E-03  8560   0.865E-02    0.114E-01
RMM:  17    -0.553555673728E+03   -0.46887E-04   -0.13418E-03  9705   0.510E-02    0.926E-02
RMM:  18    -0.553555651479E+03    0.22248E-04   -0.47904E-04  8348   0.314E-02    0.508E-02
RMM:  19    -0.553555680377E+03   -0.28898E-04   -0.36012E-04  8790   0.236E-02    0.500E-02
RMM:  20    -0.553555686148E+03   -0.57707E-05   -0.16727E-04  8317   0.193E-02    0.396E-02
RMM:  21    -0.553555677611E+03    0.85369E-05   -0.78197E-05  7461   0.150E-02    0.204E-02
RMM:  22    -0.553555679633E+03   -0.20224E-05   -0.48623E-05  7283   0.835E-03    0.167E-02
RMM:  23    -0.553555678859E+03    0.77460E-06   -0.20051E-05  6738   0.648E-03    0.864E-03
RMM:  24    -0.553555679337E+03   -0.47793E-06   -0.10700E-05  6332   0.353E-03    0.675E-03
RMM:  25    -0.553555679213E+03    0.12381E-06   -0.32392E-06  4790   0.241E-03
  15 F= -.55355568E+03 E0= -.55355547E+03  d E =-.146101E+02
       N       E                     dE             d eps       ncg     rms          rms(c)
DAV:   1    -0.611958634007E+03   -0.58403E+02   -0.28872E+03  6752   0.124E+02    0.549E+01
RMM:   2    -0.579176101541E+03    0.32783E+02   -0.11569E+02  6764   0.351E+01    0.342E+01
RMM:   3    -0.589560100525E+03   -0.10384E+02   -0.72773E+01  6897   0.214E+01    0.484E+01
RMM:   4    -0.568863187071E+03    0.20697E+02   -0.47528E+01  6983   0.164E+01    0.173E+01
RMM:   5    -0.567765673311E+03    0.10975E+01   -0.29123E+01  8023   0.922E+00    0.152E+01
RMM:   6    -0.566740378952E+03    0.10253E+01   -0.11124E+01  7649   0.638E+00    0.101E+01
RMM:   7    -0.565696653487E+03    0.10437E+01   -0.34645E+00  7306   0.420E+00    0.406E+00
RMM:   8    -0.565768395664E+03   -0.71742E-01   -0.23023E+00  9201   0.206E+00    0.318E+00
RMM:   9    -0.565770688450E+03   -0.22928E-02   -0.64049E-01  8484   0.131E+00    0.248E+00
RMM:  10    -0.565744235095E+03    0.26453E-01   -0.22919E-01  7915   0.921E-01    0.142E+00
RMM:  11    -0.565757050695E+03   -0.12816E-01   -0.18957E-01  8517   0.692E-01    0.134E+00
RMM:  12    -0.565748916436E+03    0.81343E-02   -0.66555E-02  7572   0.557E-01    0.777E-01
RMM:  13    -0.565751617504E+03   -0.27011E-02   -0.59660E-02  8444   0.373E-01    0.755E-01
RMM:  14    -0.565748300736E+03    0.33168E-02   -0.18121E-02  7738   0.264E-01    0.367E-01
RMM:  15    -0.565748727760E+03   -0.42702E-03   -0.14988E-02  8519   0.186E-01    0.313E-01
RMM:  16    -0.565748068444E+03    0.65932E-03   -0.49572E-03  8173   0.124E-01    0.161E-01
RMM:  17    -0.565748133481E+03   -0.65038E-04   -0.21691E-03  8810   0.748E-02    0.142E-01
RMM:  18    -0.565748030035E+03    0.10345E-03   -0.79464E-04  7977   0.532E-02    0.752E-02
RMM:  19    -0.565748050855E+03   -0.20820E-04   -0.50579E-04  9503   0.310E-02    0.583E-02
RMM:  20    -0.565748067459E+03   -0.16604E-04   -0.26420E-04  8531   0.238E-02    0.457E-02
RMM:  21    -0.565748062838E+03    0.46206E-05   -0.11976E-04  8312   0.170E-02    0.313E-02
RMM:  22    -0.565748060651E+03    0.21878E-05   -0.68631E-05  7306   0.121E-02    0.208E-02
RMM:  23    -0.565748059461E+03    0.11896E-05   -0.28822E-05  7078   0.765E-03    0.117E-02
RMM:  24    -0.565748060165E+03   -0.70421E-06   -0.14026E-05  6799   0.444E-03    0.986E-03
RMM:  25    -0.565748059869E+03    0.29595E-06   -0.54037E-06  5530   0.328E-03
  16 F= -.56574806E+03 E0= -.56577356E+03  d E =-.121924E+02
       N       E                     dE             d eps       ncg     rms          rms(c)
DAV:   1    -0.593063706816E+03   -0.27316E+02   -0.13929E+03  6764   0.896E+01    0.391E+01
RMM:   2    -0.575659485782E+03    0.17404E+02   -0.61549E+01  6763   0.268E+01    0.233E+01
RMM:   3    -0.580868751894E+03   -0.52093E+01   -0.46600E+01  7052   0.165E+01    0.349E+01
RMM:   4    -0.571502647781E+03    0.93661E+01   -0.27942E+01  6894   0.127E+01    0.135E+01
RMM:   5    -0.570262480479E+03    0.12402E+01   -0.12393E+01  7665   0.665E+00    0.963E+00
RMM:   6    -0.570285210733E+03   -0.22730E-01   -0.62125E+00  7916   0.441E+00    0.763E+00
RMM:   7    -0.569665537326E+03    0.61967E+00   -0.19768E+00  7460   0.298E+00    0.376E+00
RMM:   8    -0.569662096279E+03    0.34410E-02   -0.11499E+00  8848   0.156E+00    0.253E+00
RMM:   9    -0.569668289038E+03   -0.61928E-02   -0.34597E-01  8564   0.925E-01    0.196E+00
RMM:  10    -0.569667982835E+03    0.30620E-03   -0.16577E-01  8125   0.702E-01    0.150E+00
RMM:  11    -0.569667080912E+03    0.90192E-03   -0.10929E-01  8150   0.586E-01    0.115E+00
RMM:  12    -0.569666095026E+03    0.98589E-03   -0.59362E-02  7977   0.475E-01    0.850E-01
RMM:  13    -0.569661221120E+03    0.48739E-02   -0.23956E-02  7609   0.330E-01    0.412E-01
RMM:  14    -0.569662388127E+03   -0.11670E-02   -0.22650E-02  8547   0.212E-01    0.453E-01
RMM:  15    -0.569661031155E+03    0.13570E-02   -0.59359E-03  7719   0.150E-01    0.218E-01
RMM:  16    -0.569661266566E+03   -0.23541E-03   -0.55824E-03  8569   0.103E-01    0.208E-01
RMM:  17    -0.569661003786E+03    0.26278E-03   -0.16552E-03  8423   0.662E-02    0.116E-01
RMM:  18    -0.569661009706E+03   -0.59203E-05   -0.81106E-04  8616   0.419E-02    0.966E-02
RMM:  19    -0.569660969049E+03    0.40657E-04   -0.29588E-04  8034   0.303E-02    0.542E-02
RMM:  20    -0.569660986662E+03   -0.17613E-04   -0.21391E-04  8650   0.194E-02    0.535E-02
RMM:  21    -0.569660984331E+03    0.23306E-05   -0.85143E-05  8131   0.159E-02    0.326E-02
RMM:  22    -0.569660985094E+03   -0.76221E-06   -0.63362E-05  8228   0.127E-02    0.302E-02
RMM:  23    -0.569660979346E+03    0.57473E-05   -0.35503E-05  6754   0.101E-02    0.137E-02
RMM:  24    -0.569660980041E+03   -0.69508E-06   -0.15791E-05  6986   0.523E-03    0.110E-02
RMM:  25    -0.569660979990E+03    0.51572E-07   -0.58617E-06  5775   0.371E-03
  17 F= -.56966098E+03 E0= -.56962024E+03  d E =-.391292E+01
       N       E                     dE             d eps       ncg     rms          rms(c)
DAV:   1    -0.579065612852E+03   -0.94046E+01   -0.53592E+02  6816   0.584E+01    0.227E+01
RMM:   2    -0.573404679394E+03    0.56609E+01   -0.20823E+01  6761   0.175E+01    0.129E+01
RMM:   3    -0.575570193345E+03   -0.21655E+01   -0.20039E+01  7330   0.104E+01    0.202E+01
RMM:   4    -0.571604734647E+03    0.39655E+01   -0.64607E+00  6779   0.720E+00    0.616E+00
RMM:   5    -0.571602245150E+03    0.24895E-02   -0.46569E+00  8077   0.350E+00    0.393E+00
RMM:   6    -0.571634930954E+03   -0.32686E-01   -0.14140E+00  9157   0.207E+00    0.353E+00
RMM:   7    -0.571535974760E+03    0.98956E-01   -0.39200E-01  7628   0.124E+00    0.163E+00
RMM:   8    -0.571538996018E+03   -0.30213E-02   -0.21612E-01  9117   0.613E-01    0.118E+00
RMM:   9    -0.571540780235E+03   -0.17842E-02   -0.69883E-02  8595   0.400E-01    0.940E-01
RMM:  10    -0.571546866274E+03   -0.60860E-02   -0.53953E-02  8429   0.383E-01    0.937E-01
RMM:  11    -0.571545938259E+03    0.92802E-03   -0.29639E-02  8183   0.328E-01    0.670E-01
RMM:  12    -0.571543903144E+03    0.20351E-02   -0.16549E-02  7990   0.246E-01    0.445E-01
RMM:  13    -0.571542686713E+03    0.12164E-02   -0.75663E-03  8067   0.155E-01    0.212E-01
RMM:  14    -0.571542868132E+03   -0.18142E-03   -0.49121E-03  8576   0.964E-02    0.199E-01
RMM:  15    -0.571542639286E+03    0.22885E-03   -0.13917E-03  7801   0.686E-02    0.921E-02
RMM:  16    -0.571542688719E+03   -0.49432E-04   -0.99953E-04  8730   0.377E-02    0.861E-02
RMM:  17    -0.571542668324E+03    0.20395E-04   -0.26457E-04  8475   0.250E-02    0.537E-02
RMM:  18    -0.571542665848E+03    0.24755E-05   -0.13372E-04  8387   0.178E-02    0.396E-02
RMM:  19    -0.571542667157E+03   -0.13082E-05   -0.91635E-05  8332   0.150E-02    0.305E-02
RMM:  20    -0.571542667172E+03   -0.15905E-07   -0.41797E-05  7001   0.102E-02    0.253E-02
RMM:  21    -0.571542665530E+03    0.16428E-05   -0.21951E-05  6655   0.839E-03    0.174E-02
RMM:  22    -0.571542664235E+03    0.12942E-05   -0.12341E-05  6766   0.578E-03    0.111E-02
RMM:  23    -0.571542664190E+03    0.45227E-07   -0.58877E-06  5880   0.374E-03
  18 F= -.57154266E+03 E0= -.57152136E+03  d E =-.188168E+01
       N       E                     dE             d eps       ncg     rms          rms(c)
DAV:   1    -0.576515062886E+03   -0.49724E+01   -0.29475E+02  6864   0.447E+01    0.167E+01
RMM:   2    -0.573567011898E+03    0.29481E+01   -0.11689E+01  6756   0.135E+01    0.928E+00
RMM:   3    -0.574894050582E+03   -0.13270E+01   -0.11230E+01  7476   0.763E+00    0.151E+01
RMM:   4    -0.572626854125E+03    0.22672E+01   -0.32601E+00  6787   0.516E+00    0.448E+00
RMM:   5    -0.572650329273E+03   -0.23475E-01   -0.26637E+00  8118   0.254E+00    0.278E+00
RMM:   6    -0.572667981712E+03   -0.17652E-01   -0.68312E-01  9552   0.146E+00    0.252E+00
RMM:   7    -0.572618221247E+03    0.49760E-01   -0.17520E-01  7670   0.789E-01    0.114E+00
RMM:   8    -0.572620366478E+03   -0.21452E-02   -0.10483E-01  8828   0.405E-01    0.879E-01
RMM:   9    -0.572620563161E+03   -0.19668E-03   -0.36110E-02  8422   0.298E-01    0.669E-01
RMM:  10    -0.572623817538E+03   -0.32544E-02   -0.28958E-02  8464   0.273E-01    0.711E-01
RMM:  11    -0.572622370505E+03    0.14470E-02   -0.11077E-02  7720   0.215E-01    0.436E-01
RMM:  12    -0.572621373449E+03    0.99706E-03   -0.69005E-03  7779   0.167E-01    0.272E-01
RMM:  13    -0.572621164734E+03    0.20872E-03   -0.41078E-03  8399   0.103E-01    0.179E-01
RMM:  14    -0.572621065647E+03    0.99087E-04   -0.18566E-03  8211   0.714E-02    0.117E-01
RMM:  15    -0.572621027102E+03    0.38545E-04   -0.79155E-04  8313   0.472E-02    0.694E-02
RMM:  16    -0.572621031867E+03   -0.47643E-05   -0.37060E-04  8830   0.261E-02    0.599E-02
RMM:  17    -0.572621016364E+03    0.15503E-04   -0.10615E-04  8133   0.187E-02    0.369E-02
RMM:  18    -0.572621014328E+03    0.20362E-05   -0.63974E-05  8349   0.123E-02    0.263E-02
RMM:  19    -0.572621017442E+03   -0.31140E-05   -0.42077E-05  7172   0.104E-02    0.252E-02
RMM:  20    -0.572621014252E+03    0.31898E-05   -0.16551E-05  6431   0.794E-03    0.124E-02
RMM:  21    -0.572621014738E+03   -0.48553E-06   -0.11958E-05  6882   0.518E-03    0.113E-02
RMM:  22    -0.572621014039E+03    0.69866E-06   -0.49258E-06  5743   0.384E-03
  19 F= -.57262101E+03 E0= -.57258361E+03  d E =-.107835E+01
       N       E                     dE             d eps       ncg     rms          rms(c)
DAV:   1    -0.575418444237E+03   -0.27974E+01   -0.16132E+02  8012   0.356E+01    0.125E+01
RMM:   2    -0.573666842358E+03    0.17516E+01   -0.50264E+00  6762   0.809E+00    0.690E+00
RMM:   3    -0.574536225933E+03   -0.86938E+00   -0.62380E+00  7424   0.557E+00    0.118E+01
RMM:   4    -0.573176479908E+03    0.13597E+01   -0.18979E+00  6763   0.398E+00    0.369E+00
RMM:   5    -0.573164343534E+03    0.12136E-01   -0.15218E+00  8102   0.198E+00    0.221E+00
RMM:   6    -0.573181107743E+03   -0.16764E-01   -0.42852E-01  8378   0.120E+00    0.221E+00
RMM:   7    -0.573139487871E+03    0.41620E-01   -0.12069E-01  7339   0.782E-01    0.911E-01
RMM:   8    -0.573140910331E+03   -0.14225E-02   -0.74872E-02  9539   0.389E-01    0.676E-01
RMM:   9    -0.573140668097E+03    0.24223E-03   -0.20154E-02  8540   0.220E-01    0.507E-01
RMM:  10    -0.573141482375E+03   -0.81428E-03   -0.13299E-02  8239   0.190E-01    0.471E-01
RMM:  11    -0.573141429250E+03    0.53125E-04   -0.71740E-03  7969   0.162E-01    0.351E-01
RMM:  12    -0.573141202762E+03    0.22649E-03   -0.43760E-03  8017   0.126E-01    0.285E-01
RMM:  13    -0.573140656542E+03    0.54622E-03   -0.19432E-03  7714   0.884E-02    0.136E-01
RMM:  14    -0.573140659516E+03   -0.29742E-05   -0.15204E-03  8465   0.580E-02    0.106E-01
RMM:  15    -0.573140602924E+03    0.56592E-04   -0.45347E-04  8012   0.383E-02    0.606E-02
RMM:  16    -0.573140598362E+03    0.45622E-05   -0.26937E-04  8547   0.223E-02    0.459E-02
RMM:  17    -0.573140593610E+03    0.47514E-05   -0.69965E-05  8189   0.133E-02    0.337E-02
RMM:  18    -0.573140589438E+03    0.41724E-05   -0.25403E-05  6942   0.887E-03    0.239E-02
RMM:  19    -0.573140589990E+03   -0.55166E-06   -0.24350E-05  6994   0.809E-03    0.212E-02
RMM:  20    -0.573140588185E+03    0.18046E-05   -0.12913E-05  6860   0.616E-03    0.121E-02
RMM:  21    -0.573140588478E+03   -0.29283E-06   -0.73489E-06  6387   0.453E-03
  20 F= -.57314059E+03 E0= -.57311014E+03  d E =-.519574E+00
       N       E                     dE             d eps       ncg     rms          rms(c)
DAV:   1    -0.574476799137E+03   -0.13362E+01   -0.86301E+01  8220   0.293E+01    0.886E+00
RMM:   2    -0.573635647489E+03    0.84115E+00   -0.31527E+00  6763   0.624E+00    0.497E+00
RMM:   3    -0.574163103448E+03   -0.52746E+00   -0.29871E+00  7248   0.422E+00    0.864E+00
RMM:   4    -0.573453830196E+03    0.70927E+00   -0.91132E-01  6809   0.282E+00    0.329E+00
RMM:   5    -0.573383749199E+03    0.70081E-01   -0.62922E-01  7700   0.154E+00    0.133E+00
RMM:   6    -0.573406568968E+03   -0.22820E-01   -0.25833E-01  9007   0.890E-01    0.165E+00
RMM:   7    -0.573382678122E+03    0.23891E-01   -0.58126E-02  7406   0.545E-01    0.605E-01
RMM:   8    -0.573384111875E+03   -0.14338E-02   -0.41111E-02  8922   0.278E-01    0.476E-01
RMM:   9    -0.573383968257E+03    0.14362E-03   -0.10398E-02  8513   0.167E-01    0.341E-01
RMM:  10    -0.573384416275E+03   -0.44802E-03   -0.65923E-03  8209   0.136E-01    0.330E-01
RMM:  11    -0.573384212781E+03    0.20349E-03   -0.31266E-03  7689   0.114E-01    0.221E-01
RMM:  12    -0.573384133907E+03    0.78874E-04   -0.21715E-03  7997   0.873E-02    0.168E-01
RMM:  13    -0.573383971959E+03    0.16195E-03   -0.10099E-03  7906   0.591E-02    0.978E-02
RMM:  14    -0.573383968595E+03    0.33643E-05   -0.68069E-04  8287   0.416E-02    0.831E-02
RMM:  15    -0.573383922548E+03    0.46047E-04   -0.16587E-04  7473   0.278E-02    0.400E-02
RMM:  16    -0.573383921568E+03    0.98017E-06   -0.12591E-04  8528   0.150E-02    0.261E-02
RMM:  17    -0.573383922571E+03   -0.10030E-05   -0.38215E-05  7092   0.962E-03    0.227E-02
RMM:  18    -0.573383920184E+03    0.23874E-05   -0.11621E-05  6547   0.671E-03    0.124E-02
RMM:  19    -0.573383920956E+03   -0.77260E-06   -0.10052E-05  6623   0.527E-03    0.128E-02
RMM:  20    -0.573383920129E+03    0.82766E-06   -0.53839E-06  5866   0.439E-03
  21 F= -.57338392E+03 E0= -.57337586E+03  d E =-.243332E+00
       N       E                     dE             d eps       ncg     rms          rms(c)
DAV:   1    -0.574013266535E+03   -0.62935E+00   -0.48472E+01  8152   0.244E+01    0.629E+00
RMM:   2    -0.573622862655E+03    0.39040E+00   -0.21305E+00  6770   0.516E+00    0.354E+00
RMM:   3    -0.573916790876E+03   -0.29393E+00   -0.15670E+00  7145   0.324E+00    0.626E+00
RMM:   4    -0.573548950307E+03    0.36784E+00   -0.48195E-01  6783   0.210E+00    0.236E+00
RMM:   5    -0.573508600126E+03    0.40350E-01   -0.28559E-01  7579   0.115E+00    0.910E-01
RMM:   6    -0.573520803353E+03   -0.12203E-01   -0.13015E-01  9482   0.646E-01    0.114E+00
RMM:   7    -0.573509612238E+03    0.11191E-01   -0.27821E-02  7461   0.360E-01    0.431E-01
RMM:   8    -0.573510182664E+03   -0.57043E-03   -0.19282E-02  8828   0.181E-01    0.337E-01
RMM:   9    -0.573510080494E+03    0.10217E-03   -0.48401E-03  8324   0.112E-01    0.240E-01
RMM:  10    -0.573510347199E+03   -0.26670E-03   -0.32473E-03  8154   0.954E-02    0.237E-01
RMM:  11    -0.573510261779E+03    0.85420E-04   -0.16436E-03  7782   0.801E-02    0.162E-01
RMM:  12    -0.573510221548E+03    0.40231E-04   -0.11903E-03  8139   0.625E-02    0.132E-01
RMM:  13    -0.573510104460E+03    0.11709E-03   -0.52124E-04  7858   0.441E-02    0.671E-02
RMM:  14    -0.573510107723E+03   -0.32631E-05   -0.36531E-04  8373   0.294E-02    0.582E-02
RMM:  15    -0.573510087843E+03    0.19879E-04   -0.82674E-05  7564   0.188E-02    0.324E-02
RMM:  16    -0.573510084302E+03    0.35415E-05   -0.56669E-05  7167   0.110E-02    0.193E-02
RMM:  17    -0.573510084575E+03   -0.27359E-06   -0.21085E-05  7091   0.698E-03    0.162E-02
RMM:  18    -0.573510083678E+03    0.89710E-06   -0.71829E-06  6318   0.469E-03
  22 F= -.57351008E+03 E0= -.57350786E+03  d E =-.126164E+00
       N       E                     dE             d eps       ncg     rms          rms(c)
DAV:   1    -0.573729126489E+03   -0.21904E+00   -0.27930E+01  7528   0.200E+01    0.445E+00
RMM:   2    -0.573614597417E+03    0.11453E+00   -0.18526E+00  6778   0.543E+00    0.256E+00
RMM:   3    -0.573787586380E+03   -0.17299E+00   -0.94630E-01  7160   0.274E+00    0.451E+00
RMM:   4    -0.573596109643E+03    0.19148E+00   -0.27717E-01  6788   0.159E+00    0.161E+00
RMM:   5    -0.573580102919E+03    0.16007E-01   -0.15606E-01  8170   0.921E-01    0.730E-01
RMM:   6    -0.573586011919E+03   -0.59090E-02   -0.64964E-02  8980   0.457E-01    0.856E-01
RMM:   7    -0.573580067289E+03    0.59446E-02   -0.14847E-02  7391   0.260E-01    0.329E-01
RMM:   8    -0.573580580965E+03   -0.51368E-03   -0.11209E-02  8692   0.140E-01    0.283E-01
RMM:   9    -0.573580548148E+03    0.32817E-04   -0.31639E-03  8098   0.936E-02    0.200E-01
RMM:  10    -0.573580644938E+03   -0.96791E-04   -0.20475E-03  8094   0.784E-02    0.179E-01
RMM:  11    -0.573580569356E+03    0.75583E-04   -0.10864E-03  7731   0.655E-02    0.116E-01
RMM:  12    -0.573580540035E+03    0.29320E-04   -0.65177E-04  7994   0.465E-02    0.903E-02
RMM:  13    -0.573580486905E+03    0.53130E-04   -0.28439E-04  7953   0.307E-02    0.488E-02
RMM:  14    -0.573580489143E+03   -0.22378E-05   -0.18694E-04  8299   0.214E-02    0.439E-02
RMM:  15    -0.573580477778E+03    0.11364E-04   -0.45072E-05  7177   0.142E-02    0.235E-02
RMM:  16    -0.573580476380E+03    0.13981E-05   -0.31379E-05  7109   0.809E-03    0.146E-02
RMM:  17    -0.573580476664E+03   -0.28359E-06   -0.13363E-05  6882   0.562E-03    0.129E-02
RMM:  18    -0.573580476100E+03    0.56394E-06   -0.56989E-06  5972   0.408E-03
  23 F= -.57358048E+03 E0= -.57357432E+03  d E =-.703924E-01
       N       E                     dE             d eps       ncg     rms          rms(c)
DAV:   1    -0.573603859043E+03   -0.23382E-01   -0.15610E+01  7004   0.161E+01    0.303E+00
RMM:   2    -0.573618030758E+03   -0.14172E-01   -0.14238E+00  6794   0.512E+00    0.185E+00
RMM:   3    -0.573713632868E+03   -0.95602E-01   -0.55448E-01  7753   0.218E+00    0.302E+00
RMM:   4    -0.573621626142E+03    0.92007E-01   -0.12606E-01  6790   0.104E+00    0.106E+00
RMM:   5    -0.573616081485E+03    0.55447E-02   -0.67717E-02  8054   0.636E-01    0.578E-01
RMM:   6    -0.573619122287E+03   -0.30408E-02   -0.31887E-02  8775   0.302E-01    0.633E-01
RMM:   7    -0.573615800236E+03    0.33221E-02   -0.76695E-03  7463   0.182E-01    0.225E-01
RMM:   8    -0.573616548290E+03   -0.74805E-03   -0.75333E-03  8416   0.116E-01    0.270E-01
RMM:   9    -0.573616264357E+03    0.28393E-03   -0.18811E-03  7641   0.829E-02    0.153E-01
RMM:  10    -0.573616277878E+03   -0.13521E-04   -0.13514E-03  8258   0.598E-02    0.130E-01
RMM:  11    -0.573616193345E+03    0.84533E-04   -0.52914E-04  7736   0.435E-02    0.681E-02
RMM:  12    -0.573616188622E+03    0.47232E-05   -0.35207E-04  8330   0.300E-02    0.562E-02
RMM:  13    -0.573616176619E+03    0.12003E-04   -0.13710E-04  8069   0.204E-02    0.382E-02
RMM:  14    -0.573616174326E+03    0.22933E-05   -0.66637E-05  7958   0.149E-02    0.292E-02
RMM:  15    -0.573616169370E+03    0.49561E-05   -0.23255E-05  6365   0.962E-03    0.154E-02
RMM:  16    -0.573616169907E+03   -0.53741E-06   -0.18261E-05  6940   0.615E-03    0.137E-02
RMM:  17    -0.573616169726E+03    0.18065E-06   -0.78435E-06  6323   0.479E-03
  24 F= -.57361617E+03 E0= -.57360537E+03  d E =-.356936E-01
       N       E                     dE             d eps       ncg     rms          rms(c)
DAV:   1    -0.573579054177E+03    0.37116E-01   -0.86987E+00  6996   0.129E+01    0.198E+00
RMM:   2    -0.573626691709E+03   -0.47638E-01   -0.93572E-01  6835   0.417E+00    0.136E+00
RMM:   3    -0.573668152947E+03   -0.41461E-01   -0.32147E-01  8132   0.165E+00    0.176E+00
RMM:   4    -0.573635748406E+03    0.32405E-01   -0.44697E-02  6816   0.592E-01    0.686E-01
RMM:   5    -0.573634091283E+03    0.16571E-02   -0.24553E-02  7453   0.379E-01    0.459E-01
RMM:   6    -0.573635485907E+03   -0.13946E-02   -0.16068E-02  8500   0.210E-01    0.474E-01
RMM:   7    -0.573633511816E+03    0.19741E-02   -0.43811E-03  7444   0.140E-01    0.143E-01
RMM:   8    -0.573634056292E+03   -0.54448E-03   -0.46600E-03  8435   0.906E-02    0.214E-01
RMM:   9    -0.573633753468E+03    0.30282E-03   -0.91813E-04  7312   0.638E-02    0.963E-02
RMM:  10    -0.573633772921E+03   -0.19453E-04   -0.74136E-04  8556   0.387E-02    0.778E-02
RMM:  11    -0.573633755259E+03    0.17662E-04   -0.24112E-04  8389   0.258E-02    0.444E-02
RMM:  12    -0.573633755061E+03    0.19716E-06   -0.12890E-04  8440   0.185E-02    0.367E-02
RMM:  13    -0.573633753868E+03    0.11938E-05   -0.56536E-05  7488   0.137E-02    0.273E-02
RMM:  14    -0.573633749177E+03    0.46904E-05   -0.19012E-05  5886   0.102E-02    0.146E-02
RMM:  15    -0.573633750291E+03   -0.11143E-05   -0.18732E-05  6996   0.633E-03    0.145E-02
RMM:  16    -0.573633749675E+03    0.61652E-06   -0.61825E-06  6034   0.464E-03
  25 F= -.57363375E+03 E0= -.57362069E+03  d E =-.175799E-01
       N       E                     dE             d eps       ncg     rms          rms(c)
DAV:   1    -0.573588498736E+03    0.45252E-01   -0.51020E+00  7048   0.105E+01    0.127E+00
RMM:   2    -0.573634825544E+03   -0.46327E-01   -0.60008E-01  6842   0.330E+00    0.103E+00
RMM:   3    -0.573653382126E+03   -0.18557E-01   -0.19765E-01  8113   0.127E+00    0.991E-01
RMM:   4    -0.573643931786E+03    0.94503E-02   -0.19354E-02  6924   0.386E-01    0.460E-01
RMM:   5    -0.573643488393E+03    0.44339E-03   -0.10830E-02  7407   0.260E-01    0.349E-01
RMM:   6    -0.573644185651E+03   -0.69726E-03   -0.83864E-03  8340   0.156E-01    0.359E-01
RMM:   7    -0.573643016289E+03    0.11694E-02   -0.23976E-03  7261   0.110E-01    0.110E-01
RMM:   8    -0.573643234889E+03   -0.21860E-03   -0.25395E-03  8470   0.691E-02    0.135E-01
RMM:   9    -0.573643139480E+03    0.95409E-04   -0.53272E-04  7926   0.461E-02    0.709E-02
RMM:  10    -0.573643127286E+03    0.12193E-04   -0.28617E-04  8737   0.268E-02    0.476E-02
RMM:  11    -0.573643126367E+03    0.91918E-06   -0.10887E-04  8425   0.155E-02    0.329E-02
RMM:  12    -0.573643125441E+03    0.92583E-06   -0.52285E-05  7066   0.115E-02    0.219E-02
RMM:  13    -0.573643128098E+03   -0.26567E-05   -0.31081E-05  7016   0.899E-03    0.210E-02
RMM:  14    -0.573643126000E+03    0.20974E-05   -0.10633E-05  5969   0.727E-03    0.114E-02
RMM:  15    -0.573643126105E+03   -0.10444E-06   -0.92406E-06  6473   0.489E-03
  26 F= -.57364313E+03 E0= -.57362945E+03  d E =-.937643E-02
       N       E                     dE             d eps       ncg     rms          rms(c)
DAV:   1    -0.573606202753E+03    0.36923E-01   -0.31888E+00  7080   0.860E+00    0.864E-01
RMM:   2    -0.573642039456E+03   -0.35837E-01   -0.39165E-01  6845   0.264E+00    0.814E-01
RMM:   3    -0.573651738943E+03   -0.96995E-02   -0.12525E-01  7979   0.100E+00    0.601E-01
RMM:   4    -0.573649118428E+03    0.26205E-02   -0.12041E-02  7216   0.294E-01    0.329E-01
RMM:   5    -0.573648936333E+03    0.18210E-03   -0.52677E-03  7556   0.187E-01    0.253E-01
RMM:   6    -0.573649401604E+03   -0.46527E-03   -0.45640E-03  8340   0.114E-01    0.277E-01
RMM:   7    -0.573648706999E+03    0.69461E-03   -0.12925E-03  7123   0.854E-02    0.904E-02
RMM:   8    -0.573648789784E+03   -0.82786E-04   -0.14040E-03  8439   0.520E-02    0.877E-02
RMM:   9    -0.573648764638E+03    0.25146E-04   -0.32153E-04  8498   0.334E-02    0.538E-02
RMM:  10    -0.573648750909E+03    0.13729E-04   -0.12796E-04  8210   0.194E-02    0.331E-02
RMM:  11    -0.573648750796E+03    0.11337E-06   -0.60024E-05  7515   0.107E-02    0.239E-02
RMM:  12    -0.573648749910E+03    0.88570E-06   -0.24013E-05  6917   0.787E-03    0.153E-02
RMM:  13    -0.573648751369E+03   -0.14591E-05   -0.15656E-05  6956   0.613E-03    0.146E-02
RMM:  14    -0.573648750886E+03    0.48322E-06   -0.60587E-06  6090   0.502E-03
  27 F= -.57364875E+03 E0= -.57363515E+03  d E =-.562478E-02
       N       E                     dE             d eps       ncg     rms          rms(c)
DAV:   1    -0.573622321399E+03    0.26430E-01   -0.20636E+00  7128   0.701E+00    0.626E-01
RMM:   2    -0.573647590697E+03   -0.25269E-01   -0.25643E-01  6845   0.212E+00    0.658E-01
RMM:   3    -0.573653215682E+03   -0.56250E-02   -0.81283E-02  7882   0.804E-01    0.405E-01
RMM:   4    -0.573652478883E+03    0.73680E-03   -0.82947E-03  7438   0.233E-01    0.243E-01
RMM:   5    -0.573652422508E+03    0.56375E-04   -0.28411E-03  7981   0.135E-01    0.192E-01
RMM:   6    -0.573652670767E+03   -0.24826E-03   -0.24570E-03  8346   0.811E-02    0.206E-01
RMM:   7    -0.573652308299E+03    0.36247E-03   -0.74087E-04  7147   0.640E-02    0.752E-02
RMM:   8    -0.573652338436E+03   -0.30137E-04   -0.76528E-04  8429   0.387E-02    0.638E-02
RMM:   9    -0.573652327102E+03    0.11333E-04   -0.19117E-04  8406   0.249E-02    0.395E-02
RMM:  10    -0.573652318689E+03    0.84128E-05   -0.68629E-05  7320   0.148E-02    0.238E-02
RMM:  11    -0.573652318582E+03    0.10727E-06   -0.33709E-05  7378   0.816E-03    0.170E-02
RMM:  12    -0.573652318340E+03    0.24235E-06   -0.13625E-05  6835   0.598E-03    0.119E-02
RMM:  13    -0.573652318881E+03   -0.54068E-06   -0.80768E-06  6435   0.463E-03
  28 F= -.57365232E+03 E0= -.57363903E+03  d E =-.356799E-02
       N       E                     dE             d eps       ncg     rms          rms(c)
DAV:   1    -0.573634230544E+03    0.18088E-01   -0.13472E+00  7080   0.570E+00    0.472E-01
RMM:   2    -0.573651512850E+03   -0.17282E-01   -0.16839E-01  6846   0.171E+00    0.541E-01
RMM:   3    -0.573654862068E+03   -0.33492E-02   -0.52998E-02  7831   0.648E-01    0.291E-01
RMM:   4    -0.573654685752E+03    0.17632E-03   -0.55887E-03  7603   0.186E-01    0.183E-01
RMM:   5    -0.573654688580E+03   -0.28277E-05   -0.16804E-03  8416   0.100E-01    0.150E-01
RMM:   6    -0.573654811438E+03   -0.12286E-03   -0.13196E-03  8366   0.577E-02    0.153E-01
RMM:   7    -0.573654623437E+03    0.18800E-03   -0.44711E-04  7257   0.477E-02    0.611E-02
RMM:   8    -0.573654637199E+03   -0.13762E-04   -0.43010E-04  8306   0.295E-02    0.507E-02
RMM:   9    -0.573654628525E+03    0.86738E-05   -0.10902E-04  7876   0.193E-02    0.309E-02
RMM:  10    -0.573654623107E+03    0.54183E-05   -0.40172E-05  6706   0.117E-02    0.175E-02
RMM:  11    -0.573654623226E+03   -0.11858E-06   -0.19901E-05  7258   0.657E-03    0.126E-02
RMM:  12    -0.573654623233E+03   -0.75197E-08   -0.82375E-06  6401   0.473E-03
  29 F= -.57365462E+03 E0= -.57364170E+03  d E =-.230435E-02
       N       E                     dE             d eps       ncg     rms          rms(c)
DAV:   1    -0.573642338302E+03    0.12285E-01   -0.89090E-01  7120   0.465E+00    0.365E-01
RMM:   2    -0.573654018277E+03   -0.11680E-01   -0.11160E-01  6844   0.139E+00    0.443E-01
RMM:   3    -0.573656162535E+03   -0.21443E-02   -0.34991E-02  7795   0.526E-01    0.217E-01
RMM:   4    -0.573656173303E+03   -0.10768E-04   -0.38178E-03  7909   0.149E-01    0.145E-01
RMM:   5    -0.573656168187E+03    0.51166E-05   -0.98696E-04  8469   0.773E-02    0.116E-01
RMM:   6    -0.573656252507E+03   -0.84320E-04   -0.78841E-04  8334   0.439E-02    0.121E-01
RMM:   7    -0.573656138924E+03    0.11358E-03   -0.26053E-04  7245   0.366E-02    0.479E-02
RMM:   8    -0.573656144182E+03   -0.52584E-05   -0.25043E-04  8278   0.226E-02    0.358E-02
RMM:   9    -0.573656141676E+03    0.25065E-05   -0.62902E-05  6939   0.143E-02    0.241E-02
RMM:  10    -0.573656137823E+03    0.38525E-05   -0.21171E-05  6384   0.917E-03    0.130E-02
RMM:  11    -0.573656137929E+03   -0.10591E-06   -0.11846E-05  6973   0.507E-03    0.995E-03
RMM:  12    -0.573656137673E+03    0.25583E-06   -0.43559E-06  5621   0.370E-03
  30 F= -.57365614E+03 E0= -.57364357E+03  d E =-.151444E-02
       N       E                     dE             d eps       ncg     rms          rms(c)
DAV:   1    -0.573647775333E+03    0.83626E-02   -0.59929E-01  7080   0.383E+00    0.292E-01
RMM:   2    -0.573655778202E+03   -0.80029E-02   -0.75261E-02  6845   0.114E+00    0.369E-01
RMM:   3    -0.573657135473E+03   -0.13573E-02   -0.23517E-02  7780   0.430E-01    0.170E-01
RMM:   4    -0.573657180058E+03   -0.44585E-04   -0.25845E-03  7949   0.122E-01    0.116E-01
RMM:   5    -0.573657177008E+03    0.30506E-05   -0.62862E-04  8552   0.615E-02    0.920E-02
RMM:   6    -0.573657229892E+03   -0.52884E-04   -0.48666E-04  8376   0.342E-02    0.957E-02
RMM:   7    -0.573657162383E+03    0.67509E-04   -0.16645E-04  7260   0.288E-02    0.393E-02
RMM:   8    -0.573657164697E+03   -0.23149E-05   -0.15406E-04  8224   0.180E-02    0.289E-02
RMM:   9    -0.573657163356E+03    0.13416E-05   -0.41137E-05  6810   0.115E-02    0.197E-02
RMM:  10    -0.573657160746E+03    0.26094E-05   -0.13395E-05  6294   0.742E-03    0.104E-02
RMM:  11    -0.573657160795E+03   -0.48247E-07   -0.74129E-06  6406   0.410E-03
  31 F= -.57365716E+03 E0= -.57364490E+03  d E =-.102312E-02
       N       E                     dE             d eps       ncg     rms          rms(c)
DAV:   1    -0.573651429308E+03    0.57314E-02   -0.40864E-01  6896   0.316E+00    0.240E-01
RMM:   2    -0.573657022520E+03   -0.55932E-02   -0.52206E-02  6847   0.946E-01    0.327E-01
RMM:   3    -0.573657831238E+03   -0.80872E-03   -0.16210E-02  7777   0.358E-01    0.140E-01
RMM:   4    -0.573657890420E+03   -0.59182E-04   -0.18997E-03  7973   0.103E-01    0.101E-01
RMM:   5    -0.573657887004E+03    0.34157E-05   -0.49470E-04  8447   0.538E-02    0.812E-02
RMM:   6    -0.573657912463E+03   -0.25459E-04   -0.34783E-04  8456   0.294E-02    0.781E-02
RMM:   7    -0.573657871275E+03    0.41188E-04   -0.11734E-04  7230   0.241E-02    0.381E-02
RMM:   8    -0.573657877976E+03   -0.67010E-05   -0.13181E-04  8216   0.165E-02    0.358E-02
RMM:   9    -0.573657872566E+03    0.54104E-05   -0.36514E-05  6294   0.116E-02    0.193E-02
RMM:  10    -0.573657870709E+03    0.18567E-05   -0.13595E-05  6436   0.712E-03    0.109E-02
RMM:  11    -0.573657870785E+03   -0.75750E-07   -0.69353E-06  6335   0.397E-03
  32 F= -.57365787E+03 E0= -.57364588E+03  d E =-.709990E-03
       N       E                     dE             d eps       ncg     rms          rms(c)
DAV:   1    -0.573653894555E+03    0.39762E-02   -0.28128E-01  7176   0.263E+00    0.197E-01
RMM:   2    -0.573657725594E+03   -0.38310E-02   -0.35580E-02  6832   0.784E-01    0.263E-01
RMM:   3    -0.573658333670E+03   -0.60808E-03   -0.11202E-02  7797   0.297E-01    0.115E-01
RMM:   4    -0.573658367580E+03   -0.33910E-04   -0.12340E-03  7965   0.838E-02    0.807E-02
RMM:   5    -0.573658366592E+03    0.98809E-06   -0.30254E-04  8577   0.419E-02    0.644E-02
RMM:   6    -0.573658385649E+03   -0.19057E-04   -0.21612E-04  8455   0.226E-02    0.634E-02
RMM:   7    -0.573658358795E+03    0.26854E-04   -0.77616E-05  7292   0.191E-02    0.293E-02
RMM:   8    -0.573658363065E+03   -0.42697E-05   -0.81911E-05  7200   0.131E-02    0.275E-02
RMM:   9    -0.573658359614E+03    0.34509E-05   -0.21167E-05  6001   0.916E-03    0.146E-02
RMM:  10    -0.573658358499E+03    0.11154E-05   -0.83520E-06  6332   0.554E-03    0.807E-03
RMM:  11    -0.573658358520E+03   -0.21450E-07   -0.37927E-06  5302   0.308E-03
  33 F= -.57365836E+03 E0= -.57364660E+03  d E =-.487735E-03
       N       E                     dE             d eps       ncg     rms          rms(c)
DAV:   1    -0.573655533907E+03    0.28246E-02   -0.19802E-01  6904   0.221E+00    0.164E-01
RMM:   2    -0.573658217993E+03   -0.26841E-02   -0.25170E-02  6821   0.661E-01    0.223E-01
RMM:   3    -0.573658674718E+03   -0.45672E-03   -0.79010E-03  7781   0.250E-01    0.945E-02
RMM:   4    -0.573658704862E+03   -0.30144E-04   -0.88896E-04  8373   0.694E-02    0.649E-02
RMM:   5    -0.573658713351E+03   -0.84881E-05   -0.23191E-04  8574   0.353E-02    0.579E-02
RMM:   6    -0.573658719226E+03   -0.58751E-05   -0.13132E-04  8517   0.187E-02    0.505E-02
RMM:   7    -0.573658702694E+03    0.16531E-04   -0.51657E-05  7286   0.151E-02    0.244E-02
RMM:   8    -0.573658707596E+03   -0.49015E-05   -0.56806E-05  7008   0.106E-02    0.255E-02
RMM:   9    -0.573658702638E+03    0.49578E-05   -0.11287E-05  5552   0.770E-03    0.103E-02
RMM:  10    -0.573658702445E+03    0.19309E-06   -0.75650E-06  6324   0.416E-03
  34 F= -.57365870E+03 E0= -.57364715E+03  d E =-.343925E-03
       N       E                     dE             d eps       ncg     rms          rms(c)
DAV:   1    -0.573656720365E+03    0.19823E-02   -0.14121E-01  6864   0.186E+00    0.144E-01
RMM:   2    -0.573658570503E+03   -0.18501E-02   -0.18179E-02  6827   0.558E-01    0.180E-01
RMM:   3    -0.573658913459E+03   -0.34296E-03   -0.55513E-03  7709   0.209E-01    0.822E-02
RMM:   4    -0.573658940682E+03   -0.27223E-04   -0.74033E-04  8568   0.610E-02    0.581E-02
RMM:   5    -0.573658941508E+03   -0.82657E-06   -0.18358E-04  8145   0.320E-02    0.479E-02
RMM:   6    -0.573658950051E+03   -0.85426E-05   -0.10483E-04  8587   0.173E-02    0.456E-02
RMM:   7    -0.573658933462E+03    0.16589E-04   -0.28702E-05  6628   0.127E-02    0.194E-02
RMM:   8    -0.573658937638E+03   -0.41763E-05   -0.41992E-05  6882   0.843E-03    0.212E-02
RMM:   9    -0.573658934602E+03    0.30364E-05   -0.82469E-06  5896   0.599E-03    0.915E-03
RMM:  10    -0.573658934546E+03    0.55930E-07   -0.56176E-06  5803   0.369E-03
  35 F= -.57365893E+03 E0= -.57364757E+03  d E =-.232101E-03
       N       E                     dE             d eps       ncg     rms          rms(c)
DAV:   1    -0.573657499381E+03    0.14352E-02   -0.10095E-01  7152   0.158E+00    0.116E-01
RMM:   2    -0.573658869870E+03   -0.13705E-02   -0.12751E-02  6824   0.471E-01    0.153E-01
RMM:   3    -0.573659106669E+03   -0.23680E-03   -0.40663E-03  7819   0.178E-01    0.676E-02
RMM:   4    -0.573659117432E+03   -0.10763E-04   -0.42129E-04  7986   0.492E-02    0.463E-02
RMM:   5    -0.573659118349E+03   -0.91635E-06   -0.10505E-04  8761   0.241E-02    0.373E-02
RMM:   6    -0.573659123785E+03   -0.54360E-05   -0.65274E-05  7867   0.124E-02    0.352E-02
RMM:   7    -0.573659116028E+03    0.77568E-05   -0.25547E-05  6044   0.106E-02    0.169E-02
RMM:   8    -0.573659117510E+03   -0.14819E-05   -0.25305E-05  6856   0.746E-03    0.160E-02
RMM:   9    -0.573659116119E+03    0.13912E-05   -0.69679E-06  5858   0.534E-03    0.825E-03
RMM:  10    -0.573659115705E+03    0.41401E-06   -0.26403E-06  4830   0.309E-03
  36 F= -.57365912E+03 E0= -.57364790E+03  d E =-.181159E-03
       N       E                     dE             d eps       ncg     rms          rms(c)
DAV:   1    -0.573658189151E+03    0.92697E-03   -0.76917E-02  6848   0.137E+00    0.146E-01
RMM:   2    -0.573659142474E+03   -0.95332E-03   -0.10050E-02  6841   0.412E-01    0.147E-01
RMM:   3    -0.573659295919E+03   -0.15345E-03   -0.30497E-03  7409   0.162E-01    0.936E-02
RMM:   4    -0.573659275580E+03    0.20339E-04   -0.58575E-04  7664   0.612E-02    0.586E-02
RMM:   5    -0.573659260118E+03    0.15463E-04   -0.11654E-04  7830   0.273E-02    0.348E-02
RMM:   6    -0.573659264546E+03   -0.44287E-05   -0.76372E-05  8027   0.141E-02    0.314E-02
RMM:   7    -0.573659264109E+03    0.43735E-06   -0.31861E-05  6594   0.109E-02    0.228E-02
RMM:   8    -0.573659262244E+03    0.18647E-05   -0.19133E-05  6345   0.793E-03    0.146E-02
RMM:   9    -0.573659262050E+03    0.19475E-06   -0.92812E-06  6377   0.533E-03
  37 F= -.57365926E+03 E0= -.57364816E+03  d E =-.146345E-03
       N       E                     dE             d eps       ncg     rms          rms(c)
DAV:   1    -0.573658607232E+03    0.65501E-03   -0.55153E-02  6848   0.116E+00    0.128E-01
RMM:   2    -0.573659283716E+03   -0.67648E-03   -0.72207E-03  6844   0.350E-01    0.127E-01
RMM:   3    -0.573659392195E+03   -0.10848E-03   -0.21961E-03  7366   0.138E-01    0.840E-02
RMM:   4    -0.573659371616E+03    0.20580E-04   -0.44534E-04  7685   0.538E-02    0.508E-02
RMM:   5    -0.573659359993E+03    0.11622E-04   -0.89363E-05  7786   0.235E-02    0.303E-02
RMM:   6    -0.573659362633E+03   -0.26395E-05   -0.55467E-05  7939   0.123E-02    0.264E-02
RMM:   7    -0.573659363168E+03   -0.53514E-06   -0.25123E-05  6448   0.933E-03    0.206E-02
RMM:   8    -0.573659361708E+03    0.14601E-05   -0.13802E-05  6192   0.706E-03    0.128E-02
RMM:   9    -0.573659361678E+03    0.29799E-07   -0.77951E-06  6280   0.476E-03
  38 F= -.57365936E+03 E0= -.57364835E+03  d E =-.996285E-04
       N       E                     dE             d eps       ncg     rms          rms(c)
DAV:   1    -0.573658811690E+03    0.55002E-03   -0.40217E-02  6896   0.996E-01    0.801E-02
RMM:   2    -0.573659337178E+03   -0.52549E-03   -0.52054E-03  6824   0.298E-01    0.971E-02
RMM:   3    -0.573659431774E+03   -0.94596E-04   -0.15902E-03  7673   0.112E-01    0.454E-02
RMM:   4    -0.573659440622E+03   -0.88478E-05   -0.22513E-04  8631   0.335E-02    0.327E-02
RMM:   5    -0.573659439075E+03    0.15472E-05   -0.48271E-05  7563   0.166E-02    0.236E-02
RMM:   6    -0.573659442799E+03   -0.37244E-05   -0.30495E-05  7381   0.954E-03    0.245E-02
RMM:   7    -0.573659438294E+03    0.45049E-05   -0.78222E-06  5501   0.690E-03    0.104E-02
RMM:   8    -0.573659439166E+03   -0.87205E-06   -0.10492E-05  6434   0.448E-03    0.995E-03
RMM:   9    -0.573659438617E+03    0.54959E-06   -0.20331E-06  4452   0.287E-03
  39 F= -.57365944E+03 E0= -.57364853E+03  d E =-.769387E-04
