unknown system                          
            1
    12.040000    0.000000    0.000000
     0.000000   12.040000    0.000000
     0.000000    0.000000   12.040000
   Ti   V    Cr
     3    58     3
Direct configuration=     1
   0.00000000  0.00000000  0.25000000
   0.25000000  0.50000000  0.00000000
   0.75000000  0.25000000  0.75000000
   0.00000000  0.00000000  0.00000000
   0.00000000  0.00000000  0.50000000
   0.00000000  0.00000000  0.75000000
   0.00000000  0.25000000  0.00000000
   0.00000000  0.25000000  0.25000000
   0.00000000  0.25000000  0.50000000
   0.00000000  0.25000000  0.75000000
   0.00000000  0.50000000  0.00000000
   0.00000000  0.50000000  0.25000000
   0.00000000  0.50000000  0.50000000
   0.00000000  0.50000000  0.75000000
   0.00000000  0.75000000  0.00000000
   0.00000000  0.75000000  0.25000000
   0.00000000  0.75000000  0.50000000
   0.25000000  0.00000000  0.00000000
   0.25000000  0.00000000  0.25000000
   0.25000000  0.00000000  0.50000000
   0.25000000  0.00000000  0.75000000
   0.25000000  0.25000000  0.00000000
   0.25000000  0.25000000  0.25000000
   0.25000000  0.25000000  0.50000000
   0.25000000  0.25000000  0.75000000
   0.25000000  0.50000000  0.25000000
   0.25000000  0.50000000  0.50000000
   0.25000000  0.50000000  0.75000000
   0.25000000  0.75000000  0.25000000
   0.25000000  0.75000000  0.50000000
   0.25000000  0.75000000  0.75000000
   0.50000000  0.00000000  0.00000000
   0.50000000  0.00000000  0.25000000
   0.50000000  0.00000000  0.50000000
   0.50000000  0.00000000  0.75000000
   0.50000000  0.25000000  0.00000000
   0.50000000  0.25000000  0.25000000
   0.50000000  0.25000000  0.50000000
   0.50000000  0.25000000  0.75000000
   0.50000000  0.50000000  0.00000000
   0.50000000  0.50000000  0.25000000
   0.50000000  0.50000000  0.50000000
   0.50000000  0.50000000  0.75000000
   0.50000000  0.75000000  0.00000000
   0.50000000  0.75000000  0.25000000
   0.50000000  0.75000000  0.50000000
   0.50000000  0.75000000  0.75000000
   0.75000000  0.00000000  0.00000000
   0.75000000  0.00000000  0.25000000
   0.75000000  0.00000000  0.50000000
   0.75000000  0.00000000  0.75000000
   0.75000000  0.25000000  0.00000000
   0.75000000  0.25000000  0.25000000
   0.75000000  0.25000000  0.50000000
   0.75000000  0.50000000  0.00000000
   0.75000000  0.50000000  0.25000000
   0.75000000  0.50000000  0.50000000
   0.75000000  0.50000000  0.75000000
   0.75000000  0.75000000  0.00000000
   0.75000000  0.75000000  0.25000000
   0.75000000  0.75000000  0.50000000
   0.00000000  0.75000000  0.75000000
   0.25000000  0.75000000  0.00000000
   0.75000000  0.75000000  0.75000000
unknown system                          
            1
    10.413979   -0.000100   -0.000001
    -0.000100   10.414434    0.000003
    -0.000001    0.000003   10.414350
   Ti   V    Cr
     3    58     3
Direct configuration=     2
  -0.00001353  0.00002506  0.25000375
   0.24999975  0.50062664  0.00000758
   0.75000024  0.24999912  0.75000538
  -0.00004008  0.00009733 -0.00088936
  -0.00000077  0.00006200  0.50089828
   0.00001649 -0.00042953  0.74999287
  -0.00000443  0.24999471  0.00001265
   0.00002584  0.25093999  0.24998216
   0.00000321  0.24999945  0.49998820
   0.00093253  0.25001713  0.75001982
  -0.00094866  0.49991027  0.00002145
  -0.00001304  0.49997931  0.25000214
  -0.00000982  0.49993713  0.49998349
   0.00002072  0.50044963  0.74999725
   0.00053939  0.74999720 -0.00044429
  -0.00000276  0.74906538  0.25000169
   0.00002994  0.74999888  0.50045210
   0.24999833 -0.00042525  0.00001271
   0.25091912  0.00003420  0.25003026
   0.25000366  0.00002165  0.49999018
   0.25003422  0.00006328  0.74996204
   0.24997924  0.24899205  0.00002238
   0.24999663  0.24999631  0.25000078
   0.24997759  0.24997619  0.49997254
   0.24999919  0.24999694  0.75000117
   0.25000224  0.49997001  0.25094340
   0.25000186  0.49997821  0.49998850
   0.25002673  0.49994120  0.74905866
   0.25000134  0.74999906  0.24948781
   0.25000844  0.75002205  0.49995043
   0.24943555  0.74999934  0.75050331
   0.50004515  0.00006443 -0.00001266
   0.50001841  0.00002626  0.25000830
   0.50000731  0.00002980  0.50001398
   0.49998812  0.00005614  0.74999177
   0.50000139  0.24999471  0.00000951
   0.49997154  0.25002258  0.24997900
   0.49999531  0.24999934  0.49999014
   0.49907097  0.25001457  0.75001905
   0.50095124  0.49994384 -0.00000631
   0.50001583  0.49998187  0.25000576
   0.50001564  0.49997004  0.50000804
   0.49998421  0.49994834  0.74999475
   0.49945775  0.74999888  0.00003592
   0.50000267  0.74997239  0.25000758
   0.49997687  0.75000086  0.49995781
   0.50056999  0.74997843  0.74999054
   0.74999043  0.00005476  0.00004413
   0.74907776 -0.00000027  0.24999612
   0.74998957  0.00005413  0.49995404
   0.74996532 -0.00138505  0.75000450
   0.75002016  0.24997842  0.00093082
   0.75000543  0.24999873  0.24999424
   0.75002080  0.24998124  0.49907036
   0.74999245  0.49993937  0.00004760
   0.74999848  0.50000322  0.25000378
   0.74999047  0.49994718  0.49995410
   0.74997264  0.50138344  0.74999504
   0.74999767  0.75002385 -0.00044365
   0.74999057  0.74999654  0.25000983
   0.74999159  0.75001997  0.50043551
  -0.00037543  0.74996495  0.74997967
   0.25001938  0.75080136  0.00006336
   0.75036113  0.75000076  0.75000805
unknown system                          
            1
     9.268102   -0.000175    0.000139
    -0.000175    9.271051   -0.000211
     0.000139   -0.000211    9.269031
   Ti   V    Cr
     3    58     3
Direct configuration=     3
  -0.00004583 -0.00001140  0.25003634
   0.25002920  0.50218453  0.00003683
   0.75006486  0.24999963  0.75000396
  -0.00022505  0.00030612 -0.00305824
  -0.00002498  0.00020941  0.50308000
   0.00007590 -0.00183185  0.74996126
   0.00007436  0.24996945 -0.00004685
   0.00021639  0.25321411  0.24993268
   0.00002449  0.25001109  0.50005670
   0.00304805  0.25020286  0.75007205
  -0.00320892  0.49974560 -0.00007450
  -0.00005892  0.49999944  0.25004498
  -0.00015418  0.49978666  0.50007484
   0.00006065  0.50185033  0.74996062
   0.00207312  0.74997397 -0.00185389
  -0.00006305  0.74685177  0.24995770
   0.00016454  0.74996763  0.50188697
   0.25003717 -0.00179319  0.00003338
   0.25312342  0.00010995  0.25018663
   0.25006397 -0.00000610  0.49998152
   0.25017603  0.00001228  0.74980293
   0.24992232  0.24665204  0.00021781
   0.25001334  0.24997956  0.24993148
   0.24991763  0.24979944  0.49976651
   0.24994224  0.24996115  0.75005925
   0.25012827  0.49993360  0.25318546
   0.25002904  0.49999365  0.49995477
   0.25004414  0.50006129  0.74683656
   0.24994206  0.74997253  0.24799701
   0.25000041  0.75020038  0.49992978
   0.24783198  0.74998920  0.75194583
   0.50022575  0.00023804 -0.00013936
   0.50006263  0.00010081  0.25004239
   0.50003080  0.00014070  0.50014991
   0.49995415  0.00003646  0.74995669
   0.49992020  0.24995753  0.00004235
   0.49978164  0.25020583  0.24991717
   0.49997020  0.24999764  0.49995836
   0.49694346  0.25007319  0.75007037
   0.50320847  0.49982391 -0.00002053
   0.50007284  0.49991398  0.25006389
   0.50016519  0.49986623  0.50002416
   0.49996356  0.49993285  0.74994648
   0.49794807  0.75000151  0.00001607
   0.50003952  0.74979851  0.24998457
   0.49987661  0.74999482  0.49997406
   0.50205426  0.74991655  0.74999144
   0.74993978  0.00005198  0.00013498
   0.74687116 -0.00018483  0.24999158
   0.74993287  0.00015399  0.49985357
   0.74979986 -0.00499674  0.75000057
   0.75007143  0.24979884  0.00306162
   0.74998386  0.25001935  0.24999231
   0.75007912  0.24991646  0.49694310
   0.74996019  0.49993301  0.00018117
   0.74987402  0.50017571  0.25012135
   0.74995551  0.49988645  0.49983290
   0.74993013  0.50499802  0.74986747
   0.75003900  0.75019428 -0.00169822
   0.75002031  0.74996137  0.24993854
   0.75001055  0.75008373  0.50170525
  -0.00156682  0.74979078  0.74995483
   0.25003866  0.75292981  0.00013625
   0.75162037  0.74999407  0.75010432
unknown system                          
            1
     9.639171   -0.000094    0.000865
    -0.000094    9.642821   -0.000848
     0.000865   -0.000847    9.641038
   Ti   V    Cr
     3    58     3
Direct configuration=     4
  -0.00008501 -0.00008288  0.25011794
   0.25010871  0.50377759  0.00013380
   0.75020134  0.24999116  0.75005015
  -0.00056707  0.00068199 -0.00524962
  -0.00014567  0.00049380  0.50527190
   0.00011754 -0.00364891  0.74988607
   0.00027333  0.24991514 -0.00019128
   0.00051440  0.25562906  0.24984266
   0.00007385  0.24994699  0.50025447
   0.00516587  0.25064175  0.75014097
  -0.00559792  0.49947489 -0.00025522
  -0.00005155  0.50004422  0.25006714
  -0.00047062  0.49950242  0.50023926
   0.00012152  0.50366427  0.74990646
   0.00421619  0.74992086 -0.00378787
  -0.00014120  0.74458373  0.24988230
   0.00045516  0.74996120  0.50380069
   0.25007624 -0.00372031  0.00018969
   0.25537719  0.00015410  0.25050780
   0.25012682 -0.00003378  0.49988166
   0.25043923 -0.00013772  0.74950829
   0.24984396  0.24429954  0.00056140
   0.24994565  0.24993752  0.24972990
   0.24983474  0.24937862  0.49938144
   0.24979286  0.24998884  0.75024965
   0.25039524  0.49997906  0.25555576
   0.25011043  0.50000910  0.49988086
   0.25011180  0.50032679  0.74448585
   0.24969001  0.74989095  0.24595245
   0.24998351  0.75052073  0.49986227
   0.24577002  0.74994616  0.75391465
   0.50054565  0.00057909 -0.00037032
   0.50014354  0.00019726  0.25012311
   0.50013516  0.00039098  0.50039365
   0.49996820  0.00003227  0.74989223
   0.49973984  0.24995720 -0.00002003
   0.49948476  0.25059747  0.24981502
   0.49993681  0.24998822  0.50002832
   0.49484764  0.25026608  0.75014189
   0.50559265  0.49961396 -0.00006495
   0.50013264  0.49984159  0.25012589
   0.50045997  0.49964061  0.50005802
   0.49996542  0.49988221  0.74990903
   0.49597108  0.74994382 -0.00001577
   0.50009154  0.74949756  0.24991649
   0.49970369  0.74997579  0.50002830
   0.50375491  0.74975891  0.74999934
   0.74987191  0.00007091  0.00032037
   0.74462426 -0.00055161  0.25005611
   0.74986510  0.00031361  0.49966851
   0.74943889 -0.00907368  0.74989414
   0.75013501  0.24936855  0.00519016
   0.75006208  0.24996590  0.24995810
   0.75015406  0.24972801  0.49480578
   0.74986068  0.49987565  0.00036123
   0.74959398  0.50052413  0.25039873
   0.74986908  0.49978348  0.49966247
   0.74976369  0.50910076  0.74958543
   0.75008871  0.75050975 -0.00323667
   0.75014283  0.74992919  0.24974111
   0.75004496  0.75023922  0.50333938
  -0.00347971  0.74947892  0.74994286
   0.25005390  0.75555913  0.00030143
   0.75375048  0.74997818  0.75027919
unknown system                          
            1
     9.940452    0.000546    0.002568
     0.000546    9.945388   -0.002536
     0.002568   -0.002535    9.941271
   Ti   V    Cr
     3    58     3
Direct configuration=     5
  -0.00007470 -0.00014106  0.25014939
   0.25013425  0.50511351  0.00019539
   0.75034251  0.24999287  0.75010974
  -0.00097285  0.00109812 -0.00699157
  -0.00029511  0.00076237  0.50701969
   0.00018590 -0.00500729  0.74984400
   0.00048157  0.24988218 -0.00037393
   0.00081614  0.25756414  0.24977467
   0.00007854  0.24980654  0.50048643
   0.00685392  0.25103805  0.75020441
  -0.00761246  0.49913418 -0.00042712
   0.00006189  0.50021870  0.24997408
  -0.00081046  0.49920408  0.50037080
   0.00029244  0.50512633  0.74995246
   0.00617102  0.74987305 -0.00527091
  -0.00030846  0.74275254  0.24987138
   0.00085233  0.75002383  0.50522352
   0.24999787 -0.00522183  0.00038571
   0.25718624  0.00018581  0.25088700
   0.25008071 -0.00014933  0.49973931
   0.25074058 -0.00021139  0.74919287
   0.24978188  0.24231174  0.00090105
   0.24978360  0.24992083  0.24943821
   0.24976136  0.24898957  0.49901801
   0.24961821  0.25012386  0.75050941
   0.25066443  0.49998730  0.25754192
   0.25014698  0.50004438  0.49983962
   0.25022318  0.50051986  0.74253810
   0.24936130  0.74981941  0.24424186
   0.25005798  0.75082100  0.49977137
   0.24405696  0.74984910  0.75558266
   0.50094732  0.00089584 -0.00062931
   0.50018706  0.00027209  0.25016879
   0.50026737  0.00056036  0.50068524
   0.49996380  0.00008787  0.74985643
   0.49955766  0.25005935 -0.00017762
   0.49919655  0.25097099  0.24971887
   0.49996017  0.24998268  0.50020451
   0.49319572  0.25041428  0.75020533
   0.50761666  0.49939930 -0.00013907
   0.50008263  0.49986596  0.25007238
   0.50078850  0.49947613  0.50013373
   0.49986537  0.49980463  0.74998243
   0.49426919  0.74983975 -0.00001171
   0.50017651  0.74920576  0.24992286
   0.49948171  0.74996696  0.50001584
   0.50516751  0.74961122  0.74995186
   0.74988846  0.00011789  0.00050878
   0.74281220 -0.00097654  0.25011395
   0.74989224  0.00053422  0.49946664
   0.74899774 -0.01235343  0.74979144
   0.75019346  0.24894967  0.00690358
   0.75023222  0.24984728  0.24987965
   0.75022676  0.24955813  0.49312268
   0.74978664  0.49972321  0.00048783
   0.74933791  0.50088622  0.25068011
   0.74980087  0.49961741  0.49954529
   0.74953411  0.51238749  0.74931007
   0.75005098  0.75079531 -0.00442655
   0.75033799  0.74997017  0.24957574
   0.74999586  0.75038095  0.50458308
  -0.00509646  0.74917482  0.74988819
   0.25014108  0.75756950  0.00043958
   0.75548645  0.74997206  0.75046986
unknown system                          
            1
     9.850450    0.002272    0.005871
     0.002273    9.856163   -0.006214
     0.005873   -0.006212    9.848809
   Ti   V    Cr
     3    58     3
Direct configuration=     6
  -0.00003121 -0.00018271  0.25014813
   0.25011447  0.50630447  0.00023995
   0.75047959  0.25000144  0.75017198
  -0.00142473  0.00155414 -0.00856627
  -0.00045980  0.00103678  0.50859111
   0.00028702 -0.00607163  0.74982984
   0.00068986  0.24986100 -0.00056558
   0.00114874  0.25931622  0.24972745
   0.00005139  0.24961798  0.50071869
   0.00837263  0.25140236  0.75027050
  -0.00947639  0.49875994 -0.00062536
   0.00026192  0.50046870  0.24980764
  -0.00117552  0.49890188  0.50049265
   0.00055372  0.50635619  0.75007880
   0.00800309  0.74981868 -0.00642979
  -0.00052327  0.74112625  0.24988860
   0.00133753  0.75011780  0.50633477
   0.24981829 -0.00642716  0.00060905
   0.25880943  0.00021679  0.25131713
   0.24994333 -0.00031860  0.49956983
   0.25106704 -0.00022389  0.74884795
   0.24972754  0.24044386  0.00126957
   0.24957928  0.24993780  0.24909577
   0.24968133  0.24860430  0.49864163
   0.24941576  0.25032738  0.75080478
   0.25094869  0.49995892  0.25936919
   0.25013808  0.50009929  0.49980600
   0.25035127  0.50068959  0.74076755
   0.24896279  0.74975062  0.24276832
   0.25020359  0.75111023  0.49967999
   0.24253409  0.74971306  0.75703105
   0.50143360  0.00118916 -0.00093226
   0.50020043  0.00035039  0.25019272
   0.50043034  0.00066759  0.50103595
   0.49995014  0.00018037  0.74984307
   0.49937885  0.25023156 -0.00035537
   0.49888841  0.25133692  0.24962316
   0.50003687  0.24997913  0.50041485
   0.49172931  0.25051797  0.75027730
   0.50950677  0.49918713 -0.00024592
   0.49995331  0.49993987  0.24994354
   0.50116458  0.49936749  0.50025533
   0.49970787  0.49970392  0.75013566
   0.49273175  0.74970159  0.00000849
   0.50030501  0.74890138  0.24997719
   0.49920364  0.74995627  0.49995698
   0.50644589  0.74947259  0.74987274
   0.74995184  0.00020683  0.00069045
   0.74117258 -0.00144322  0.25016642
   0.74997040  0.00082859  0.49925040
   0.74849590 -0.01519659  0.74968366
   0.75025639  0.24851805  0.00845368
   0.75043783  0.24969532  0.24979569
   0.75030687  0.24940545  0.49161905
   0.74972737  0.49950106  0.00057835
   0.74909004  0.50126207  0.25097294
   0.74974012  0.49938344  0.49945199
   0.74925661  0.51522691  0.74902778
   0.74995068  0.75104926 -0.00539876
   0.75055898  0.75005246  0.24943227
   0.74989217  0.75052499  0.50557312
  -0.00640735  0.74888833  0.74980577
   0.25028055  0.75916832  0.00052595
   0.75686271  0.74997374  0.75067691
unknown system                          
            1
     9.736473    0.005577    0.012150
     0.005580    9.741349   -0.013077
     0.012152   -0.013071    9.732040
   Ti   V    Cr
     3    58     3
Direct configuration=     7
   0.00004362 -0.00018450  0.25010949
   0.25005075  0.50718377  0.00028122
   0.75062183  0.25000634  0.75025269
  -0.00190180  0.00202387 -0.00975084
  -0.00067050  0.00130423  0.50975262
   0.00041145 -0.00676328  0.74984832
   0.00089463  0.24984738 -0.00073497
   0.00144591  0.26070577  0.24971486
   0.00000609  0.24936891  0.50093416
   0.00948844  0.25175877  0.75031589
  -0.01097752  0.49841374 -0.00082380
   0.00056059  0.50075299  0.24954667
  -0.00156384  0.49860011  0.50057594
   0.00089539  0.50721672  0.75027235
   0.00959846  0.74973786 -0.00718450
  -0.00076719  0.73997698  0.24994403
   0.00188757  0.75022557  0.50703424
   0.24954106 -0.00715653  0.00087302
   0.26003611  0.00025181  0.25176366
   0.24970595 -0.00049845  0.49937514
   0.25138718 -0.00016405  0.74851517
   0.24969933  0.23883955  0.00160804
   0.24933817  0.24996043  0.24873296
   0.24961745  0.24821669  0.49827143
   0.24921696  0.25061392  0.75112688
   0.25122348  0.49993586  0.26080381
   0.25007067  0.50012051  0.49979021
   0.25050986  0.50083004  0.73938540
   0.24851269  0.74965529  0.24163571
   0.25041671  0.75133009  0.49957148
   0.24125455  0.74956292  0.75814502
   0.50195450  0.00147284 -0.00123422
   0.50017210  0.00044028  0.25018142
   0.50062596  0.00072504  0.50139036
   0.49991657  0.00031836  0.74987637
   0.49922281  0.25046746 -0.00056218
   0.49861351  0.25169414  0.24954529
   0.50015465  0.24997313  0.50065773
   0.49064621  0.25059022  0.75034219
   0.51102034  0.49901894 -0.00037092
   0.49976009  0.50006110  0.24973188
   0.50154718  0.49930382  0.50039385
   0.49949305  0.49957293  0.75037950
   0.49151936  0.74952891  0.00007264
   0.50045276  0.74865689  0.25006731
   0.49892213  0.74994116  0.49984510
   0.50751249  0.74935186  0.74977316
   0.75007006  0.00032250  0.00086378
   0.73992616 -0.00187913  0.25022699
   0.75010789  0.00115161  0.49903423
   0.74795678 -0.01724485  0.74954524
   0.75029659  0.24807614  0.00964077
   0.75069898  0.24948389  0.24971296
   0.75037570  0.24927311  0.49048396
   0.74969226  0.49918810  0.00062250
   0.74887188  0.50159763  0.25126588
   0.74970327  0.49909648  0.49938890
   0.74893162  0.51727924  0.74876214
   0.74977944  0.75123233 -0.00603569
   0.75078063  0.75015475  0.24930041
   0.74973493  0.75066747  0.50623163
  -0.00728336  0.74868126  0.74972780
   0.25048149  0.76015007  0.00058240
   0.75778791  0.74997902  0.75087031
unknown system                          
            1
     9.759826    0.011554    0.024096
     0.011562    9.762582   -0.025746
     0.024094   -0.025728    9.752796
   Ti   V    Cr
     3    58     3
Direct configuration=     8
   0.00015057 -0.00011445  0.25002938
   0.24994184  0.50759083  0.00032087
   0.75075218  0.25000358  0.75035178
  -0.00236045  0.00243147 -0.01041195
  -0.00093503  0.00152554  0.51037427
   0.00054914 -0.00703651  0.74988498
   0.00108771  0.24985254 -0.00084674
   0.00165411  0.26162163  0.24976656
  -0.00003538  0.24908151  0.50109946
   0.01006092  0.25209432  0.75031510
  -0.01197390  0.49816869 -0.00100242
   0.00093836  0.50104145  0.24919952
  -0.00195649  0.49831825  0.50060121
   0.00128114  0.50762137  0.75049898
   0.01082321  0.74962762 -0.00748401
  -0.00102845  0.73948132  0.25004227
   0.00246299  0.75032063  0.50726386
   0.24919426 -0.00738359  0.00116227
   0.26074643  0.00028068  0.25217994
   0.24938401 -0.00065876  0.49919446
   0.25167043 -0.00004207  0.74823977
   0.24972509  0.23763971  0.00184867
   0.24909256  0.24997321  0.24839826
   0.24959645  0.24783460  0.49793839
   0.24905693  0.25097983  0.75144634
   0.25146897  0.49994923  0.26169990
   0.24993241  0.50006905  0.49980140
   0.25071041  0.50095016  0.73853179
   0.24804708  0.74952274  0.24093987
   0.25069541  0.75142632  0.49945438
   0.24030420  0.74944373  0.75881336
   0.50243453  0.00173252 -0.00148886
   0.50009080  0.00055279  0.25012274
   0.50082537  0.00073564  0.50169076
   0.49983648  0.00048717  0.74997148
   0.49910530  0.25075318 -0.00077783
   0.49841986  0.25202881  0.24950691
   0.50028557  0.24996625  0.50089855
   0.49006311  0.25063041  0.75038724
   0.51199198  0.49893875 -0.00049544
   0.49953651  0.50021769  0.24945325
   0.50187918  0.49928148  0.50051151
   0.49923330  0.49942076  0.75069519
   0.49077397  0.74934439  0.00018740
   0.50059324  0.74853806  0.25017690
   0.49869399  0.74992003  0.49969907
   0.50826552  0.74925934  0.74966074
   0.75023350  0.00042468  0.00100337
   0.73919783 -0.00222467  0.25030303
   0.75029517  0.00145293  0.49884427
   0.74743575 -0.01826444  0.74936595
   0.75028101  0.24765428  0.01033833
   0.75099568  0.24921990  0.24965095
   0.75042127  0.24917051  0.48983161
   0.74968646  0.49880224  0.00061481
   0.74870581  0.50183753  0.25153955
   0.74970126  0.49879762  0.49936759
   0.74858498  0.51832192  0.74853915
   0.74955366  0.75129939 -0.00626109
   0.75096742  0.75024165  0.24917959
   0.74954444  0.75079524  0.50651142
  -0.00764556  0.74859877  0.74968120
   0.25076033  0.76046597  0.00061224
   0.75821520  0.74998453  0.75102649
unknown system                          
            1
     9.803282    0.022269    0.046041
     0.022282    9.803247   -0.048837
     0.046029   -0.048795    9.793777
   Ti   V    Cr
     3    58     3
Direct configuration=     9
   0.00027182  0.00003530  0.24992072
   0.24979596  0.50767468  0.00036570
   0.75085011  0.24999971  0.75045894
  -0.00277054  0.00273779 -0.01082687
  -0.00124293  0.00167868  0.51075907
   0.00067884 -0.00712061  0.74990457
   0.00127080  0.24988338 -0.00091038
   0.00178997  0.26232903  0.24988839
  -0.00004785  0.24879839  0.50120857
   0.01038169  0.25238601  0.75028083
  -0.01270319  0.49804304 -0.00117364
   0.00134716  0.50135782  0.24882004
  -0.00234913  0.49806020  0.50059111
   0.00163829  0.50784337  0.75071054
   0.01182818  0.74951137 -0.00757596
  -0.00129920  0.73933879  0.25015456
   0.00302929  0.75038067  0.50730575
   0.24881566 -0.00754480  0.00144198
   0.26121010  0.00027565  0.25254462
   0.24902362 -0.00081788  0.49906864
   0.25191134  0.00010895  0.74802718
   0.24980754  0.23669833  0.00198707
   0.24887663  0.24998378  0.24810884
   0.24961965  0.24744572  0.49763692
   0.24891244  0.25138662  0.75173644
   0.25169091  0.50000951  0.26231989
   0.24973802  0.49995054  0.49983120
   0.25094805  0.50108619  0.73794027
   0.24759057  0.74937445  0.24047605
   0.25102985  0.75141970  0.49934423
   0.23953876  0.74941222  0.75923782
   0.50285209  0.00196361 -0.00169790
   0.49999067  0.00070072  0.25003898
   0.50101082  0.00070413  0.50194026
   0.49970753  0.00064002  0.75010249
   0.49901195  0.25106001 -0.00096675
   0.49828923  0.25234952  0.24950047
   0.50040115  0.24996263  0.50110371
   0.48973690  0.25064104  0.75042933
   0.51268258  0.49894219 -0.00063022
   0.49933720  0.50039902  0.24916628
   0.50215901  0.49929217  0.50060296
   0.49897287  0.49927338  0.75102199
   0.49031130  0.74919864  0.00032756
   0.50071179  0.74852379  0.25027973
   0.49853005  0.74988406  0.49956999
   0.50886262  0.74918184  0.74953357
   0.75039308  0.00046489  0.00109972
   0.73868999 -0.00250937  0.25039723
   0.75047658  0.00170805  0.49868796
   0.74697412 -0.01879755  0.74914709
   0.75020815  0.24725499  0.01079578
   0.75128296  0.24893745  0.24960820
   0.75046908  0.24908078  0.48941843
   0.74968219  0.49839904  0.00057451
   0.74857620  0.50200063  0.25179701
   0.74970486  0.49853483  0.49936563
   0.74826215  0.51889116  0.74836882
   0.74932821  0.75125283 -0.00631147
   0.75109334  0.75028364  0.24906103
   0.74936138  0.75091199  0.50665059
  -0.00780486  0.74859580  0.74967088
   0.25109709  0.76055700  0.00061151
   0.75845532  0.74999047  0.75115154
unknown system                          
            1
     9.803432    0.041259    0.085551
     0.041277    9.800171   -0.090237
     0.085512   -0.090152    9.791313
   Ti   V    Cr
     3    58     3
Direct configuration=    10
   0.00039051  0.00027068  0.24979226
   0.24961591  0.50758872  0.00042322
   0.75092142  0.24999991  0.75057481
  -0.00311471  0.00294558 -0.01117126
  -0.00160324  0.00177523  0.51110081
   0.00080154 -0.00716392  0.74987311
   0.00145356  0.24994351 -0.00094447
   0.00186610  0.26301650  0.25009033
  -0.00001465  0.24853346  0.50126522
   0.01063901  0.25262136  0.75021426
  -0.01332928  0.49803566 -0.00133323
   0.00176925  0.50171755  0.24843559
  -0.00274091  0.49782047  0.50055592
   0.00194342  0.50805495  0.75088803
   0.01274607  0.74939003 -0.00763065
  -0.00157978  0.73935897  0.25026256
   0.00358204  0.75038978  0.50733148
   0.24842533 -0.00784859  0.00169347
   0.26159885  0.00022870  0.25284433
   0.24864340 -0.00099560  0.49901688
   0.25210343  0.00027870  0.74788499
   0.24994289  0.23585746  0.00201124
   0.24869995  0.24999297  0.24786464
   0.24968494  0.24703544  0.49735198
   0.24875869  0.25183165  0.75199531
   0.25187704  0.50013016  0.26284157
   0.24950118  0.49976848  0.49987878
   0.25123104  0.50123769  0.73742529
   0.24715116  0.74921584  0.24009504
   0.25141574  0.75131945  0.49923880
   0.23883475  0.74951255  0.75957693
   0.50320110  0.00218028 -0.00186920
   0.49989564  0.00090101  0.24995033
   0.50117081  0.00063289  0.50213677
   0.49953382  0.00076668  0.75025614
   0.49892675  0.25138777 -0.00111374
   0.49819880  0.25267034  0.24951240
   0.50049184  0.24996809  0.50126204
   0.48950426  0.25062791  0.75049241
   0.51326505  0.49899677 -0.00079868
   0.49919284  0.50060047  0.24889930
   0.50237909  0.49932394  0.50066180
   0.49874104  0.49913273  0.75132741
   0.48998911  0.74912733  0.00049041
   0.50078809  0.74860165  0.25036791
   0.49843954  0.74982560  0.49948307
   0.50942611  0.74909572  0.74938043
   0.75052379  0.00042479  0.00116725
   0.73821646 -0.00275362  0.25051936
   0.75062158  0.00190795  0.49856164
   0.74658620 -0.01920456  0.74887960
   0.75007373  0.24688457  0.01118030
   0.75154748  0.24864235  0.24957604
   0.75055814  0.24898233  0.48909069
   0.74966295  0.49799940  0.00051531
   0.74847783  0.50210120  0.25204064
   0.74969128  0.49831650  0.49935704
   0.74797591  0.51934097  0.74827577
   0.74914286  0.75109834 -0.00633807
   0.75115870  0.75026816  0.24893551
   0.74919878  0.75103024  0.50680633
  -0.00794850  0.74864008  0.74971970
   0.25145869  0.76062156  0.00058674
   0.75869557  0.74999724  0.75124011
unknown system                          
            1
     9.792688    0.074987    0.156560
     0.075000    9.786047   -0.164219
     0.156458   -0.164066    9.777826
   Ti   V    Cr
     3    58     3
Direct configuration=    11
   0.00049028  0.00060634  0.24964554
   0.24941165  0.50734100  0.00049821
   0.75096834  0.25000629  0.75069891
  -0.00335067  0.00303088 -0.01139667
  -0.00205788  0.00183930  0.51136994
   0.00092037 -0.00716701  0.74975831
   0.00162660  0.25003940 -0.00095380
   0.00185160  0.26367655  0.25041042
   0.00007230  0.24829596  0.50124917
   0.01080878  0.25277572  0.75009192
  -0.01381779  0.49817809 -0.00143922
   0.00219020  0.50210674  0.24806137
  -0.00312238  0.49760445  0.50048160
   0.00217922  0.50822639  0.75102143
   0.01353084  0.74924620 -0.00766033
  -0.00187756  0.73960167  0.25036616
   0.00410568  0.75032693  0.50731354
   0.24804954 -0.00822379  0.00190055
   0.26187766  0.00014062  0.25303543
   0.24825757 -0.00119881  0.49906216
   0.25223091  0.00047393  0.74784375
   0.25014116  0.23509880  0.00185328
   0.24857359  0.24998138  0.24768571
   0.24981106  0.24660011  0.49708450
   0.24860999  0.25232467  0.75222253
   0.25198092  0.50034940  0.26321734
   0.24922950  0.49951281  0.49995798
   0.25160467  0.50135823  0.73700963
   0.24675971  0.74904015  0.23983874
   0.25186253  0.75109272  0.49912381
   0.23820664  0.74981129  0.75982355
   0.50344454  0.00238533 -0.00198690
   0.49981573  0.00116548  0.24987065
   0.50127612  0.00050793  0.50223792
   0.49931235  0.00087258  0.75044797
   0.49884371  0.25174897 -0.00121084
   0.49815294  0.25299325  0.24954884
   0.50055057  0.24999306  0.50136440
   0.48938653  0.25059394  0.75059726
   0.51370140  0.49908156 -0.00104763
   0.49913430  0.50082138  0.24866096
   0.50249406  0.49936835  0.50066348
   0.49856269  0.49899461  0.75159721
   0.48983427  0.74916753  0.00069871
   0.50078928  0.74880576  0.25044393
   0.49845018  0.74974154  0.49945317
   0.50995589  0.74897279  0.74917799
   0.75061206  0.00028938  0.00121410
   0.73781361 -0.00293408  0.25069777
   0.75072020  0.00203058  0.49848085
   0.74629542 -0.01944559  0.74854158
   0.74984777  0.24659470  0.01146147
   0.75179134  0.24832012  0.24954482
   0.75073603  0.24885298  0.48888720
   0.74961734  0.49761707  0.00043181
   0.74842565  0.50213084  0.25225962
   0.74965639  0.49814466  0.49932778
   0.74771576  0.51961863  0.74832112
   0.74903541  0.75081484 -0.00632645
   0.75116359  0.75017623  0.24879506
   0.74905722  0.75116849  0.50698648
  -0.00804794  0.74874260  0.74988692
   0.25181790  0.76055856  0.00054002
   0.75891265  0.75000956  0.75125727
unknown system                          
            1
     9.795690    0.134620    0.282742
     0.134591    9.785543   -0.294847
     0.282496   -0.294589    9.777875
   Ti   V    Cr
     3    58     3
Direct configuration=    12
   0.00054095  0.00106417  0.24948984
   0.24919511  0.50692702  0.00060685
   0.75098346  0.25001823  0.75082243
  -0.00337872  0.00294670 -0.01141595
  -0.00265098  0.00191200  0.51150030
   0.00103189 -0.00712639  0.74950017
   0.00176439  0.25018912 -0.00094312
   0.00169407  0.26426462  0.25091553
   0.00021511  0.24812734  0.50111763
   0.01085271  0.25279301  0.74987451
  -0.01406794  0.49853168 -0.00141013
   0.00257058  0.50247543  0.24773128